# LAMMPS data file written by OVITO Basic 3.2.1
8 atoms
2 atom types
0.0 3.2486578362 xlo xhi
0.0 5.6263366252 ylo yhi
0.0 5.2831528332 zlo zhi
-1.2850802704e-08 2.4066868228e-09 4.1773390365e-09 xy xz yz

Masses

1 69.72
2 14.01

Atoms  # atomic

1 1 2.5636184438e-06 1.8754464039 5.2776555943
2 1 1.6243315154 0.937721915 2.6360791783
3 1 2.550052606e-06 3.7508902265 2.636079185
4 1 1.6243314488 4.6886147184 5.2776556014
5 2 2.5990312547e-06 1.8753620098 1.9866795398
6 2 1.6243314825 0.9378063053 4.6282559654
7 2 2.5301165308e-06 3.7509746211 4.6282559736
8 2 1.6243314697 4.6885303237 1.9866795446
