# LAMMPS data file written by OVITO Basic 3.2.1
600 atoms
4 atom types
0.0 294.2063 xlo xhi
0.0 5.2310282447 ylo yhi
0.0 5.1021 zlo zhi
0.2436604054 0.0 0.0 xy xz yz

Masses

1   74.92
2   10.81
3   69.72
4   14.01

Atoms  # atomic

1 1 135.5406643299 3.8490428927 3.931372134
2 1 135.3534838887 1.283275849 1.357719831
3 1 137.6959846613 1.1702333286 3.945658014
4 1 137.8650730539 3.7897230324 1.402720353
5 1 130.9069151049 3.8490428927 3.931372134
6 1 130.7197346637 1.283275849 1.357719831
7 1 133.0651774993 1.1702333286 3.945658014
8 1 133.2342658919 3.7897230324 1.402720353
9 1 126.2761079429 3.8490428927 3.931372134
10 1 126.0889275017 1.283275849 1.357719831
11 1 128.4314282743 1.1702333286 3.945658014
12 1 128.6005166669 3.7897230324 1.402720353
13 1 121.6423587179 3.8490428927 3.931372134
14 1 121.4551782767 1.283275849 1.357719831
15 1 123.8006211123 1.1702333286 3.945658014
16 1 123.9697095049 3.7897230324 1.402720353
17 1 117.0115515559 3.8490428927 3.931372134
18 1 116.8243711147 1.283275849 1.357719831
19 1 119.1668718873 1.1702333286 3.945658014
20 1 119.3359602799 3.7897230324 1.402720353
21 1 112.3778023309 3.8490428927 3.931372134
22 1 112.1906218897 1.283275849 1.357719831
23 1 114.5331226623 1.1702333286 3.945658014
24 1 114.7051531179 3.7897230324 1.402720353
25 1 107.7469951689 3.8490428927 3.931372134
26 1 107.5598147277 1.283275849 1.357719831
27 1 109.9023155003 1.1702333286 3.945658014
28 1 110.0714038929 3.7897230324 1.402720353
29 1 103.1132459439 3.8490428927 3.931372134
30 1 102.9260655027 1.283275849 1.357719831
31 1 105.2685662753 1.1702333286 3.945658014
32 1 105.4405967309 3.7897230324 1.402720353
33 1 98.4824387819 3.8490428927 3.931372134
34 1 98.2923162777 1.283275849 1.357719831
35 1 100.6377591133 1.1702333286 3.945658014
36 1 100.8068475059 3.7897230324 1.402720353
37 1 93.8486895569 3.8490428927 3.931372134
38 1 93.6615091157 1.283275849 1.357719831
39 1 96.0040098883 1.1702333286 3.945658014
40 1 96.1730982809 3.7897230324 1.402720353
41 1 89.2149403319 3.8490428927 3.931372134
42 1 89.0277598907 1.283275849 1.357719831
43 1 91.3732027263 1.1702333286 3.945658014
44 1 91.5422911189 3.7897230324 1.402720353
45 1 84.5841331699 3.8490428927 3.931372134
46 1 84.3969527287 1.283275849 1.357719831
47 1 86.7394535013 1.1702333286 3.945658014
48 1 86.9085418939 3.7897230324 1.402720353
49 1 79.9503839449 3.8490428927 3.931372134
50 1 79.7632035037 1.283275849 1.357719831
51 1 82.1057042763 1.1702333286 3.945658014
52 1 82.2777347319 3.7897230324 1.402720353
53 1 75.3195767829 3.8490428927 3.931372134
54 1 75.1294542787 1.283275849 1.357719831
55 1 77.4748971143 1.1702333286 3.945658014
56 1 77.6439855069 3.7897230324 1.402720353
57 1 70.6858275579 3.8490428927 3.931372134
58 1 70.4986471167 1.283275849 1.357719831
59 1 72.8411478893 1.1702333286 3.945658014
60 1 73.0131783449 3.7897230324 1.402720353
61 1 66.0550203959 3.8490428927 3.931372134
62 1 65.8648978917 1.283275849 1.357719831
63 1 68.2103407273 1.1702333286 3.945658014
64 1 68.3794291199 3.7897230324 1.402720353
65 1 61.4212711709 3.8490428927 3.931372134
66 1 61.2340907297 1.283275849 1.357719831
67 1 63.5765915023 1.1702333286 3.945658014
68 1 63.7486219579 3.7897230324 1.402720353
69 1 56.7904640089 3.8490428927 3.931372134
70 1 56.6003415047 1.283275849 1.357719831
71 1 58.9457843403 1.1702333286 3.945658014
72 1 59.1148727329 3.7897230324 1.402720353
73 1 52.1567147839 3.8490428927 3.931372134
74 1 51.9695343427 1.283275849 1.357719831
75 1 54.3120351153 1.1702333286 3.945658014
76 1 54.4811235079 3.7897230324 1.402720353
77 1 47.5229655589 3.8490428927 3.931372134
78 1 47.3357851177 1.283275849 1.357719831
79 1 49.6782858903 1.1702333286 3.945658014
80 1 49.8503163459 3.7897230324 1.402720353
81 1 42.8921583969 3.8490428927 3.931372134
82 1 42.7049779557 1.283275849 1.357719831
83 1 45.0474787283 1.1702333286 3.945658014
84 1 45.2165671209 3.7897230324 1.402720353
85 1 38.2584091719 3.8490428927 3.931372134
86 1 38.0712287307 1.283275849 1.357719831
87 1 40.4137295033 1.1702333286 3.945658014
88 1 40.5857599589 3.7897230324 1.402720353
89 1 33.6276020099 3.8490428927 3.931372134
90 1 33.4404215687 1.283275849 1.357719831
91 1 35.7829223413 1.1702333286 3.945658014
92 1 35.9520107339 3.7897230324 1.402720353
93 1 28.9938527849 3.8490428927 3.931372134
94 1 28.8066723437 1.283275849 1.357719831
95 1 31.1491731163 1.1702333286 3.945658014
96 1 31.3212035719 3.7897230324 1.402720353
97 1 24.3630456229 3.8490428927 3.931372134
98 1 24.1729231187 1.283275849 1.357719831
99 1 26.5183659543 1.1702333286 3.945658014
100 1 26.6874543469 3.7897230324 1.402720353
101 1 19.7292963979 3.8490428927 3.931372134
102 1 19.5421159567 1.283275849 1.357719831
103 1 21.8846167293 1.1702333286 3.945658014
104 1 22.0537051219 3.7897230324 1.402720353
105 1 15.0955471729 3.8490428927 3.931372134
106 1 14.9083667317 1.283275849 1.357719831
107 1 17.2538095673 1.1702333286 3.945658014
108 1 17.4228979599 3.7897230324 1.402720353
109 1 10.4647400109 3.8490428927 3.931372134
110 1 10.2775595697 1.283275849 1.357719831
111 1 12.6200603423 1.1702333286 3.945658014
112 1 12.7891487349 3.7897230324 1.402720353
113 1 5.8309907859 3.8490428927 3.931372134
114 1 5.6438103447 1.283275849 1.357719831
115 1 7.9863111173 1.1702333286 3.945658014
116 1 8.1583415729 3.7897230324 1.402720353
117 1 1.2001836239 3.8490428927 3.931372134
118 1 1.0130031827 1.283275849 1.357719831
119 1 3.3555039553 1.1702333286 3.945658014
120 1 3.5245923479 3.7897230324 1.402720353
121 1 140.1744135549 3.8490428927 3.931372134
122 1 139.9872331137 1.283275849 1.357719831
123 1 142.3297338863 1.1702333286 3.945658014
124 1 142.4988222789 3.7897230324 1.402720353
125 1 144.7679542219 3.6806037833 3.953770353
126 1 144.6963218354 1.0690129321 1.394608014
127 1 147.0388250447 0.956022722 3.908769831
128 1 147.0953050089 3.621283923 1.380322134
129 2 136.6449464177 2.6074583389 0.139746519
130 2 136.7306615571 5.1424146262 2.58421365
131 2 138.943054174 2.4256277971 2.672275896
132 2 139.0621055662 5.0446467083 0.121225896
133 2 132.0141392557 2.6074583389 0.139746519
134 2 132.0998543951 5.1424146262 2.58421365
135 2 134.309304949 2.4256277971 2.672275896
136 2 134.4283563412 5.0446467083 0.121225896
137 2 127.3803900307 2.6074583389 0.139746519
138 2 127.4661051701 5.1424146262 2.58421365
139 2 129.675555724 2.4256277971 2.672275896
140 2 129.7975491792 5.0446467083 0.121225896
141 2 122.7466408057 2.6074583389 0.139746519
142 2 122.8323559451 5.1424146262 2.58421365
143 2 125.044748562 2.4256277971 2.672275896
144 2 125.1637999542 5.0446467083 0.121225896
145 2 118.1158336437 2.6074583389 0.139746519
146 2 118.2015487831 5.1424146262 2.58421365
147 2 120.410999337 2.4256277971 2.672275896
148 2 120.5300507292 5.0446467083 0.121225896
149 2 113.4820844187 2.6074583389 0.139746519
150 2 113.5677995581 5.1424146262 2.58421365
151 2 115.780192175 2.4256277971 2.672275896
152 2 115.8992435672 5.0446467083 0.121225896
153 2 108.8512772567 2.6074583389 0.139746519
154 2 108.9369923961 5.1424146262 2.58421365
155 2 111.14644295 2.4256277971 2.672275896
156 2 111.2654943422 5.0446467083 0.121225896
157 2 104.2175280317 2.6074583389 0.139746519
158 2 104.3032431711 5.1424146262 2.58421365
159 2 106.515635788 2.4256277971 2.672275896
160 2 106.6346871802 5.0446467083 0.121225896
161 2 99.5867208697 2.6074583389 0.139746519
162 2 99.6724360091 5.1424146262 2.58421365
163 2 101.881886563 2.4256277971 2.672275896
164 2 102.0009379552 5.0446467083 0.121225896
165 2 94.9529716447 2.6074583389 0.139746519
166 2 95.0386867841 5.1424146262 2.58421365
167 2 97.251079401 2.4256277971 2.672275896
168 2 97.3701307932 5.0446467083 0.121225896
169 2 90.3221644827 2.6074583389 0.139746519
170 2 90.4049375591 5.1424146262 2.58421365
171 2 92.617330176 2.4256277971 2.672275896
172 2 92.7363815682 5.0446467083 0.121225896
173 2 85.6884152577 2.6074583389 0.139746519
174 2 85.7741303971 5.1424146262 2.58421365
175 2 87.983580951 2.4256277971 2.672275896
176 2 88.1026323432 5.0446467083 0.121225896
177 2 81.0546660327 2.6074583389 0.139746519
178 2 81.1403811721 5.1424146262 2.58421365
179 2 83.352773789 2.4256277971 2.672275896
180 2 83.4718251812 5.0446467083 0.121225896
181 2 76.4238588707 2.6074583389 0.139746519
182 2 76.5095740101 5.1424146262 2.58421365
183 2 78.719024564 2.4256277971 2.672275896
184 2 78.8380759562 5.0446467083 0.121225896
185 2 71.7901096457 2.6074583389 0.139746519
186 2 71.8758247851 5.1424146262 2.58421365
187 2 74.088217402 2.4256277971 2.672275896
188 2 74.2072687942 5.0446467083 0.121225896
189 2 67.1593024837 2.6074583389 0.139746519
190 2 67.2450176231 5.1424146262 2.58421365
191 2 69.454468177 2.4256277971 2.672275896
192 2 69.5735195692 5.0446467083 0.121225896
193 2 62.5255532587 2.6074583389 0.139746519
194 2 62.6112683981 5.1424146262 2.58421365
195 2 64.823661015 2.4256277971 2.672275896
196 2 64.9427124072 5.0446467083 0.121225896
197 2 57.8947460967 2.6074583389 0.139746519
198 2 57.9775191731 5.1424146262 2.58421365
199 2 60.18991179 2.4256277971 2.672275896
200 2 60.3089631822 5.0446467083 0.121225896
201 2 53.2609968717 2.6074583389 0.139746519
202 2 53.3467120111 5.1424146262 2.58421365
203 2 55.559104628 2.4256277971 2.672275896
204 2 55.6781560202 5.0446467083 0.121225896
205 2 48.6272476467 2.6074583389 0.139746519
206 2 48.7129627861 5.1424146262 2.58421365
207 2 50.925355403 2.4256277971 2.672275896
208 2 51.0444067952 5.0446467083 0.121225896
209 2 43.9964404847 2.6074583389 0.139746519
210 2 44.0821556241 5.1424146262 2.58421365
211 2 46.291606178 2.4256277971 2.672275896
212 2 46.4106575702 5.0446467083 0.121225896
213 2 39.3626912597 2.6074583389 0.139746519
214 2 39.4484063991 5.1424146262 2.58421365
215 2 41.660799016 2.4256277971 2.672275896
216 2 41.7798504082 5.0446467083 0.121225896
217 2 34.7318840977 2.6074583389 0.139746519
218 2 34.8175992371 5.1424146262 2.58421365
219 2 37.027049791 2.4256277971 2.672275896
220 2 37.1461011832 5.0446467083 0.121225896
221 2 30.0981348727 2.6074583389 0.139746519
222 2 30.1838500121 5.1424146262 2.58421365
223 2 32.396242629 2.4256277971 2.672275896
224 2 32.5152940212 5.0446467083 0.121225896
225 2 25.4673277107 2.6074583389 0.139746519
226 2 25.5530428501 5.1424146262 2.58421365
227 2 27.762493404 2.4256277971 2.672275896
228 2 27.8815447962 5.0446467083 0.121225896
229 2 20.8335784857 2.6074583389 0.139746519
230 2 20.9192936251 5.1424146262 2.58421365
231 2 23.131686242 2.4256277971 2.672275896
232 2 23.2507376342 5.0446467083 0.121225896
233 2 16.1998292607 2.6074583389 0.139746519
234 2 16.2855444001 5.1424146262 2.58421365
235 2 18.497937017 2.4256277971 2.672275896
236 2 18.6169884092 5.0446467083 0.121225896
237 2 11.5690220987 2.6074583389 0.139746519
238 2 11.6547372381 5.1424146262 2.58421365
239 2 13.864187792 2.4256277971 2.672275896
240 2 13.9832391842 5.0446467083 0.121225896
241 2 6.9352728737 2.6074583389 0.139746519
242 2 7.0209880131 5.1424146262 2.58421365
243 2 9.23338063 2.4256277971 2.672275896
244 2 9.3524320222 5.0446467083 0.121225896
245 2 2.3044657117 2.6074583389 0.139746519
246 2 2.3901808511 5.1424146262 2.58421365
247 2 4.599631405 2.4256277971 2.672275896
248 2 4.7186827972 5.0446467083 0.121225896
249 2 0.1702603621 0.3708275923 4.816280358
250 2 141.2786956427 2.6074583389 0.139746519
251 2 141.3644107821 5.1424146262 2.58421365
252 2 143.573861336 2.4256277971 2.672275896
253 2 143.6929127282 5.0446467083 0.121225896
254 2 145.905305345 2.3278598792 0.033214671
255 2 145.9910204845 4.8628161666 2.690796519
256 2 147.8815678652 1.8684709787 2.265230358
257 3 156.1158970068 1.4786547539 4.835056086
258 3 157.7520086302 0.601359007 2.244770937
259 3 156.2020553262 3.3283463413 2.219311458
260 3 157.8611157142 3.8911526701 4.822709004
261 3 159.4992694568 1.4786547539 4.835056086
262 3 161.1353786436 0.6013066967 2.244770937
263 3 159.5824857132 3.3283463413 2.219311458
264 3 161.2444881642 3.8911526701 4.822709004
265 3 162.8826419068 1.4786547539 4.835056086
266 3 164.5158090306 0.6013066967 2.244770937
267 3 162.9658581632 3.3283463413 2.219311458
268 3 164.6278606142 3.8911526701 4.822709004
269 3 166.2630722938 1.4786547539 4.835056086
270 3 167.8991814806 0.6013066967 2.244770937
271 3 166.3492306132 3.3283463413 2.219311458
272 3 168.0082910012 3.8911526701 4.822709004
273 3 169.6464447438 1.4786547539 4.835056086
274 3 171.2825539306 0.6013066967 2.244770937
275 3 169.7326030632 3.3283463413 2.219311458
276 3 171.3916634512 3.8911526701 4.822709004
277 3 173.0298171938 1.4786547539 4.835056086
278 3 174.6659263806 0.6013066967 2.244770937
279 3 173.1130334502 3.3283463413 2.219311458
280 3 174.7750359012 3.8911526701 4.822709004
281 3 176.4131896438 1.4786547539 4.835056086
282 3 178.0492988306 0.6013066967 2.244770937
283 3 176.4964059002 3.3283463413 2.219311458
284 3 178.1584083512 3.8911526701 4.822709004
285 3 179.7965620938 1.4786547539 4.835056086
286 3 181.4297292176 0.6013066967 2.244770937
287 3 179.8797783502 3.3283463413 2.219311458
288 3 181.5417808012 3.8911526701 4.822709004
289 3 183.1769924808 1.4786547539 4.835056086
290 3 184.8131016676 0.6013066967 2.244770937
291 3 183.2631508002 3.3283463413 2.219311458
292 3 184.9222111882 3.8911526701 4.822657983
293 3 186.5603649308 1.4786547539 4.835056086
294 3 188.1964741176 0.6013066967 2.244770937
295 3 186.6465232502 3.3283463413 2.219311458
296 3 188.3055836382 3.8911526701 4.822709004
297 3 189.9437373808 1.4786547539 4.835056086
298 3 191.5798465676 0.6013066967 2.244770937
299 3 190.0298957002 3.3283463413 2.219311458
300 3 191.6889560882 3.8911526701 4.822709004
301 3 193.3271098308 1.4786547539 4.835056086
302 3 194.9632190176 0.6013066967 2.244770937
303 3 193.4103260872 3.3283463413 2.219311458
304 3 195.0723285382 3.8911526701 4.822709004
305 3 196.7104822808 1.4786547539 4.835056086
306 3 198.3465914676 0.6013066967 2.244770937
307 3 196.7936985372 3.3283463413 2.219311458
308 3 198.4557009882 3.8911526701 4.822657983
309 3 200.0909126678 1.4786547539 4.835056086
310 3 201.7270218546 0.6013066967 2.244770937
311 3 200.1770709872 3.3283463413 2.219311458
312 3 201.8390734382 3.8911526701 4.822709004
313 3 203.4742851178 1.4786547539 4.835056086
314 3 205.1103943046 0.6013066967 2.244770937
315 3 203.5604434372 3.3283463413 2.219311458
316 3 205.2195038252 3.8911526701 4.822657983
317 3 206.8576575678 1.4786547539 4.835056086
318 3 208.4937667546 0.6013066967 2.244770937
319 3 206.9438158872 3.3283463413 2.219311458
320 3 208.6028762752 3.8911526701 4.822657983
321 3 210.2410300178 1.4786547539 4.835056086
322 3 211.8771392046 0.6013066967 2.244770937
323 3 210.3242462742 3.3283463413 2.219311458
324 3 211.9862487252 3.8911526701 4.822657983
325 3 213.6244024678 1.4786547539 4.835056086
326 3 215.2605116546 0.6013066967 2.244770937
327 3 213.7076187242 3.3283463413 2.219311458
328 3 215.3696211752 3.8911526701 4.822709004
329 3 217.0048328548 1.4786547539 4.835056086
330 3 218.6409420416 0.6013066967 2.244770937
331 3 217.0909911742 3.3283463413 2.219311458
332 3 218.7529936252 3.8911526701 4.822709004
333 3 220.3882053048 1.4786547539 4.835056086
334 3 222.0243144916 0.6013066967 2.244770937
335 3 220.4743636242 3.3283463413 2.219311458
336 3 222.1334240122 3.8911526701 4.822657983
337 3 223.7715777548 1.4786547539 4.835056086
338 3 225.4076869416 0.6013066967 2.244770937
339 3 223.8577360742 3.3283463413 2.219311458
340 3 225.5167964622 3.8911526701 4.822657983
341 3 227.1549502048 1.4786547539 4.835056086
342 3 228.7910618282 0.601359007 2.244770937
343 3 227.2381664612 3.3283463413 2.219311458
344 3 228.9001689122 3.8911526701 4.822709004
345 3 230.5383226548 1.4786547539 4.835056086
346 3 232.1744318416 0.6013066967 2.244770937
347 3 230.6215389112 3.3283463413 2.219311458
348 3 232.2835413622 3.8911526701 4.822709004
349 3 233.9187530418 1.4786547539 4.835056086
350 3 235.5548622286 0.6013066967 2.244770937
351 3 234.0049113612 3.3283463413 2.219311458
352 3 235.6669138122 3.8911526701 4.822657983
353 3 237.3021254918 1.4786547539 4.835056086
354 3 238.9382371152 0.601359007 2.244770937
355 3 237.3882838112 3.3283463413 2.219311458
356 3 239.0473441992 3.8911526701 4.822657983
357 3 240.6854979418 1.4786547539 4.835056086
358 3 242.3216095652 0.601359007 2.244770937
359 3 240.7716562612 3.3283463413 2.219311458
360 3 242.4307166492 3.8911526701 4.822709004
361 3 244.0688703918 1.4786547539 4.835056086
362 3 245.7049795786 0.6013066967 2.244770937
363 3 244.1520866482 3.3283463413 2.219311458
364 3 245.8140890992 3.8911526701 4.822709004
365 3 247.4522428418 1.4786547539 4.835056086
366 3 249.0883520286 0.6013066967 2.244770937
367 3 247.5354590982 3.3283463413 2.219311458
368 3 249.1974615492 3.8911526701 4.822657983
369 3 250.8326732288 1.4786547539 4.835056086
370 3 252.4687824156 0.6013066967 2.244770937
371 3 250.9188315482 3.3283463413 2.219311458
372 3 252.5808339992 3.8911526701 4.822657983
373 3 254.2160456788 1.4786547539 4.835056086
374 3 255.8521548656 0.6013066967 2.244770937
375 3 254.3022039982 3.3283463413 2.219311458
376 3 255.9612643862 3.8911526701 4.822657983
377 3 257.5994181288 1.4786547539 4.835056086
378 3 259.2355273156 0.6013066967 2.244770937
379 3 257.6855764482 3.3283463413 2.219311458
380 3 259.3446368362 3.8911526701 4.822709004
381 3 262.6188997656 0.6013066967 2.244770937
382 3 261.0689488982 3.3283463413 2.219311458
383 3 262.7280092862 3.8911526701 4.822709004
384 3 264.3661630288 1.4786547539 4.835056086
385 3 266.0022722156 0.6013066967 2.244770937
386 3 264.4493792852 3.3283463413 2.219311458
387 3 266.1113817362 3.8911526701 4.822657983
388 3 267.7465934158 1.4786547539 4.835056086
389 3 269.3827026026 0.6013066967 2.244770937
390 3 267.8327517352 3.3283463413 2.219311458
391 3 269.4947541862 3.8911526701 4.822657983
392 3 271.1299658658 1.4786547539 4.835056086
393 3 272.7660750526 0.6013066967 2.244770937
394 3 271.2161241852 3.3283463413 2.219311458
395 3 272.8751845732 3.8911526701 4.822709004
396 3 274.5133383158 1.4786547539 4.835056086
397 3 276.1494475026 0.6013066967 2.244770937
398 3 274.5994966352 3.3283463413 2.219311458
399 3 276.2585570232 3.8911526701 4.822709004
400 3 277.8967107658 1.4786547539 4.835056086
401 3 279.5328199526 0.6013066967 2.244770937
402 3 277.9828690852 3.3283463413 2.219311458
403 3 279.6419294732 3.8911526701 4.822657983
404 3 281.2800832158 1.4786547539 4.835056086
405 3 282.9161924026 0.6013066967 2.244770937
406 3 281.3632994722 3.3283463413 2.219311458
407 3 283.0253019232 3.8911526701 4.822657983
408 3 284.6634556658 1.4786547539 4.835056086
409 3 286.2966227896 0.6013066967 2.244770937
410 3 284.7466719222 3.3283463413 2.219311458
411 3 286.4086743732 3.8911526701 4.822709004
412 3 288.0438860528 1.4786547539 4.835056086
413 3 289.6799952396 0.6013066967 2.244770937
414 3 288.1300443722 3.3283463413 2.219311458
415 3 289.7891047602 3.8911526701 4.822709004
416 3 291.4272585028 1.4786547539 4.835056086
417 3 293.0633701262 0.601359007 2.244770937
418 3 291.5134168222 3.3283463413 2.219311458
419 3 293.1724772102 3.8911526701 4.822657983
420 3 149.3065589317 1.6379918743 4.795820937
421 3 150.9426681186 0.7606438171 2.284006086
422 3 149.4411098166 3.5791741456 2.271607983
423 3 151.1001702046 4.1419804744 4.770361458
424 3 152.7325245568 1.4786547539 4.835056086
425 3 154.3686337436 0.6013066967 2.244770937
426 3 152.8186828762 3.3283463413 2.219311458
427 3 154.4777432642 3.8911526701 4.822709004
428 4 156.0565489332 1.4677742152 1.677672522
429 4 157.8946300562 0.6946282406 4.241426751
430 4 156.1681941217 3.2961755175 4.164385041
431 4 157.8733471937 4.0274209559 1.614151377
432 4 159.4399213832 1.4677742152 1.677672522
433 4 161.2780025062 0.6946282406 4.241426751
434 4 159.5486220721 3.2961232073 4.164385041
435 4 161.2537775807 4.0274209559 1.614151377
436 4 162.8232938332 1.4677742152 1.677672522
437 4 164.6584328932 0.6946282406 4.241426751
438 4 162.9319945221 3.2961232073 4.164385041
439 4 164.6371500307 4.0274209559 1.614151377
440 4 166.2066662832 1.4677742152 1.677672522
441 4 168.0418053432 0.6946282406 4.241426751
442 4 166.3153669721 3.2961232073 4.164385041
443 4 168.0205224807 4.0274209559 1.614151377
444 4 169.5870966702 1.4677742152 1.677672522
445 4 171.4251777932 0.6946282406 4.241426751
446 4 169.6987418587 3.2961755175 4.164385041
447 4 171.4038949307 4.0274209559 1.614151377
448 4 172.9704691202 1.4677742152 1.677672522
449 4 174.8085502432 0.6946282406 4.241426751
450 4 173.0821118721 3.2961232073 4.164385041
451 4 174.7872673807 4.0274209559 1.614151377
452 4 176.3538415702 1.4677742152 1.677672522
453 4 178.1919226932 0.6946282406 4.241426751
454 4 176.4625422591 3.2961232073 4.164385041
455 4 178.1706398307 4.0274209559 1.614151377
456 4 179.7372140202 1.4677742152 1.677672522
457 4 181.5752951432 0.6946282406 4.241426751
458 4 179.8459147091 3.2961232073 4.164385041
459 4 181.5510702177 4.0274209559 1.614151377
460 4 183.1205864702 1.4677742152 1.677672522
461 4 184.9557255302 0.6946282406 4.241426751
462 4 183.2292871591 3.2961232073 4.164385041
463 4 184.9344426677 4.0274209559 1.614151377
464 4 186.5010168572 1.4677742152 1.677672522
465 4 188.3390979802 0.6946282406 4.241426751
466 4 186.6126596091 3.2961232073 4.164385041
467 4 188.3178151177 4.0274209559 1.614151377
468 4 189.8843893072 1.4677742152 1.677672522
469 4 191.7224704302 0.6946282406 4.241426751
470 4 189.9960320591 3.2961232073 4.164385041
471 4 191.7011875677 4.0274209559 1.614151377
472 4 193.2677617572 1.4677742152 1.677672522
473 4 195.1058428802 0.6946282406 4.241426751
474 4 193.3764648827 3.2961755175 4.164385041
475 4 195.0845600177 4.0274209559 1.614151377
476 4 196.6511342072 1.4677742152 1.677672522
477 4 198.4892153302 0.6946282406 4.241426751
478 4 196.7598348961 3.2961232073 4.164385041
479 4 198.4649904047 4.0274209559 1.614151377
480 4 200.0345066572 1.4677742152 1.677672522
481 4 201.8696457172 0.6946282406 4.241426751
482 4 200.1432097827 3.2961755175 4.164385041
483 4 201.8483628547 4.0274209559 1.614151377
484 4 203.4149370442 1.4677742152 1.677672522
485 4 205.2530181672 0.6946282406 4.241426751
486 4 203.5265797961 3.2961232073 4.164385041
487 4 205.2317353047 4.0274209559 1.614151377
488 4 206.7983094942 1.4677742152 1.677672522
489 4 208.6363906172 0.6946282406 4.241426751
490 4 206.9099522461 3.2961232073 4.164385041
491 4 208.6151077547 4.0274209559 1.614151377
492 4 210.1816819442 1.4677742152 1.677672522
493 4 212.0197630672 0.6946282406 4.241426751
494 4 210.2903826331 3.2961232073 4.164385041
495 4 211.9984802047 4.0274209559 1.614151377
496 4 213.5650543942 1.4677742152 1.677672522
497 4 215.4031355172 0.6946282406 4.241426751
498 4 213.6737550831 3.2961232073 4.164385041
499 4 215.3789105917 4.0274209559 1.614151377
500 4 216.9484268442 1.4677742152 1.677672522
501 4 218.7835659042 0.6946282406 4.241426751
502 4 217.0571275331 3.2961232073 4.164385041
503 4 218.7622830417 4.0274209559 1.614151377
504 4 220.3288572312 1.4677742152 1.677672522
505 4 222.1669383542 0.6946282406 4.241426751
506 4 220.4405024197 3.2961755175 4.164385041
507 4 222.1456554917 4.0274209559 1.614151377
508 4 223.7122296812 1.4677742152 1.677672522
509 4 225.5503108042 0.6946282406 4.241426751
510 4 223.8238724331 3.2961232073 4.164385041
511 4 225.5290279417 4.0274209559 1.614151377
512 4 227.0956021312 1.4677742152 1.677672522
513 4 228.9336832542 0.6946282406 4.241426751
514 4 227.2072448831 3.2961232073 4.164385041
515 4 228.9124003917 4.0274209559 1.614151377
516 4 230.4789745812 1.4677742152 1.677672522
517 4 232.3170557042 0.6946282406 4.241426751
518 4 230.5876752701 3.2961232073 4.164385041
519 4 232.2928307787 4.0274209559 1.614151377
520 4 233.8623470312 1.4677742152 1.677672522
521 4 235.6974860912 0.6946282406 4.241426751
522 4 233.9710477201 3.2961232073 4.164385041
523 4 235.6762032287 4.0274209559 1.614151377
524 4 237.2427774182 1.4677742152 1.677672522
525 4 239.0808585412 0.6946282406 4.241426751
526 4 237.3544201701 3.2961232073 4.164385041
527 4 239.0595756787 4.0274209559 1.614151377
528 4 240.6261498682 1.4677742152 1.677672522
529 4 242.4642309912 0.6946282406 4.241426751
530 4 240.7377926201 3.2961232073 4.164385041
531 4 242.4429481287 4.0274209559 1.614151377
532 4 244.0095223182 1.4677742152 1.677672522
533 4 245.8476034412 0.6946282406 4.241426751
534 4 244.1211650701 3.2961232073 4.164385041
535 4 245.8263205787 4.0274209559 1.614151377
536 4 247.3928947682 1.4677742152 1.677672522
537 4 249.2309758912 0.6946282406 4.241426751
538 4 247.5015954571 3.2961232073 4.164385041
539 4 249.2067509657 4.0274209559 1.614151377
540 4 250.7762672182 1.4677742152 1.677672522
541 4 252.6114062782 0.6946282406 4.241426751
542 4 250.8849679071 3.2961232073 4.164385041
543 4 252.5901234157 4.0274209559 1.614151377
544 4 254.1596396682 1.4677742152 1.677672522
545 4 255.9947787282 0.6946282406 4.241426751
546 4 254.2683403571 3.2961232073 4.164385041
547 4 255.9734958657 4.0274209559 1.614151377
548 4 257.5400700552 1.4677742152 1.677672522
549 4 259.3781511782 0.6946282406 4.241426751
550 4 257.6517128071 3.2961232073 4.164385041
551 4 259.3568683157 4.0274209559 1.614151377
552 4 260.9234425052 1.4677742152 1.677672522
553 4 262.7615236282 0.6946282406 4.241426751
554 4 261.0350852571 3.2961232073 4.164385041
555 4 262.7402407657 4.0274209559 1.614151377
556 4 264.3068149552 1.4677742152 1.677672522
557 4 266.1448960782 0.6946282406 4.241426751
558 4 264.4155156441 3.2961232073 4.164385041
559 4 266.1236132157 4.0274209559 1.614151377
560 4 267.6901874052 1.4677742152 1.677672522
561 4 269.5253264652 0.6946282406 4.241426751
562 4 267.7988880941 3.2961232073 4.164385041
563 4 269.5040436027 4.0274209559 1.614151377
564 4 271.0706177922 1.4677742152 1.677672522
565 4 272.9086989152 0.6946282406 4.241426751
566 4 271.1822605441 3.2961232073 4.164385041
567 4 272.8874160527 4.0274209559 1.614151377
568 4 274.4539902422 1.4677742152 1.677672522
569 4 276.2920713652 0.6946282406 4.241426751
570 4 274.5656329941 3.2961232073 4.164385041
571 4 276.2707885027 4.0274209559 1.614151377
572 4 277.8373626922 1.4677742152 1.677672522
573 4 279.6754438152 0.6946282406 4.241426751
574 4 277.9490054441 3.2961232073 4.164385041
575 4 279.6541609527 4.0274209559 1.614151377
576 4 281.2207351422 1.4677742152 1.677672522
577 4 283.0588162652 0.6946282406 4.241426751
578 4 281.3294382677 3.2961755175 4.164385041
579 4 283.0375334027 4.0274209559 1.614151377
580 4 284.6041075922 1.4677742152 1.677672522
581 4 286.4392466522 0.6946282406 4.241426751
582 4 284.7128082811 3.2961232073 4.164385041
583 4 286.4179637897 4.0274209559 1.614151377
584 4 287.9874800422 1.4677742152 1.677672522
585 4 289.8226191022 0.6946282406 4.241426751
586 4 288.0961807311 3.2961232073 4.164385041
587 4 289.8013362397 4.0274209559 1.614151377
588 4 291.3679104292 1.4677742152 1.677672522
589 4 293.2059915522 0.6946282406 4.241426751
590 4 291.4795556177 3.2961755175 4.164385041
591 4 293.1847086897 4.0274209559 1.614151377
592 4 149.1639350691 1.5446703304 1.690376751
593 4 151.0020161922 0.7715243558 4.228722522
594 4 149.4288807736 3.4429581701 4.165201377
595 4 151.1340338457 4.1742036084 1.613335041
596 4 152.6731764832 1.4677742152 1.677672522
597 4 154.5112576062 0.6946282406 4.241426751
598 4 152.7848192351 3.2961232073 4.164385041
599 4 154.4899747437 4.0274209559 1.614151377
600 3 260.9827905788 1.4786547539 4.835056086