# LAMMPS data file written by OVITO Basic 3.2.1
8 atoms
2 atom types
0.0 4.8172459461 xlo xhi
0.0 4.8172459413 ylo yhi
0.0 4.8172459423 zlo zhi
-4.4134519805e-09 -1.881397307e-09 -2.9628342025e-08 xy xz yz

Masses

1 74.92
2 10.81

Atoms  # atomic

1 1 1.2043114789 3.6129344239 3.6129344187
2 1 1.2043114876 1.2043115125 1.2043114828
3 1 3.6129344683 1.2043114388 3.6129344888
4 1 3.612934432 3.612934447 1.204311493
5 2 3.9537210245e-08 4.8172459069 3.1948283875e-08
6 2 2.4086229745 2.4086229566 4.8172459178
7 2 2.4086229734 2.156199434e-08 2.4086229641
8 2 4.817245905 2.4086229394 2.4086229723
