  0.00000000000000000E+00  0.00000000000000000E+00  0.00000000000000000E+00  0.00000000000000000E+00  0.00000000000000000E+00
  0.00000000000000000E+00  0.00000000000000000E+00  0.00000000000000000E+00  0.00000000000000000E+00  0.00000000000000000E+00
  0.00000000000000000E+00  0.00000000000000000E+00  0.00000000000000000E+00  0.00000000000000000E+00  0.00000000000000000E+00
  0.25504457584595354E+02  0.68004352853015385E-01  0.68004332066120027E-01  0.90623221067228504E-02  0.90623249655330113E-02
  0.25504551919779047E+02  0.68004523628045460E-01  0.68004502832376926E-01  0.90623010128707982E-02  0.90623038727314694E-02
  0.61168803178945900E+02  0.41881102198956459E-01  0.41881128230187893E-01  0.46704571486700205E-03  0.46704558491458169E-03
  0.10043435935201016E+03  0.90255242409269948E-03  0.90255240830692791E-03  0.45915233609209998E-02  0.45915233204481699E-02
  0.10411198954247031E+03  0.15849451334624298E-01  0.15849448639287691E-01  0.98788231376922844E-01  0.98788199121789377E-01
  0.10411200886750413E+03  0.15849580593162532E-01  0.15849577897467874E-01  0.98789324005450430E-01  0.98789291751767982E-01
  0.10509048615632604E+03  0.22118563921944376E-01  0.22118567779263798E-01  0.15489803768399951E+00  0.15489793715784278E+00
  0.10509048861304487E+03  0.22118556895626820E-01  0.22118560752686273E-01  0.15489803528265053E+00  0.15489793475810235E+00
  0.12593756355323357E+03  0.39380933229476115E-02  0.39380984395471288E-02  0.13297755271023207E+00  0.13297724105938732E+00
  0.40543880593032968E+01  0.66607780859618887E-03  0.66607689741842867E-03  0.13214069889827413E-03  0.13214086527578060E-03
  0.44508589201539515E+01  0.83380997613571699E-03  0.83380875037600028E-03  0.16526828468109436E-03  0.16526850872971161E-03
  0.85025293585028496E+01  0.28044546666799067E-02  0.28044504578527123E-02  0.54083628442147882E-03  0.54083708890103222E-03
  0.25905549581048138E+02  0.73558204041898945E-01  0.73558154696511432E-01  0.96397985100064188E-02  0.96398049260908603E-02
  0.26598421869655297E+02  0.88637910491084965E-01  0.88637849736429047E-01  0.11212510866694227E-01  0.11212512844948223E-01
  0.60863049041316714E+02  0.45225042237420549E-01  0.45225069349289215E-01  0.52724269310677394E-03  0.52724235975520266E-03
  0.10044896098792030E+03  0.10377216421136128E-02  0.10377216233624722E-02  0.52896204029079441E-02  0.52896203554686789E-02
  0.10404128025689445E+03  0.13295674717351118E-01  0.13295673109585206E-01  0.83320352972173051E-01  0.83320324493449477E-01
  0.10544366867399557E+03  0.23723726395004887E-01  0.23723732713484370E-01  0.17528312095469845E+00  0.17528298889089472E+00
  0.10577939146847783E+03  0.29961122567461973E-01  0.29961102585833427E-01  0.23422046427050347E+00  0.23422046569989097E+00
  0.10737402158804424E+03  0.18511506909504451E-01  0.18511494542481698E-01  0.15721065289771413E+00  0.15721068033790433E+00
  0.12582196971582148E+03  0.38873586696873802E-02  0.38873635545871206E-02  0.13167366502603087E+00  0.13167342848383609E+00
  0.82139675939078671E+01  0.25968716915118232E-02  0.25968678880618256E-02  0.50181235743713179E-03  0.50181308334265682E-03
  0.87374533620457431E+01  0.29502282332338932E-02  0.29502237560783259E-02  0.56791960064874814E-03  0.56792045763346375E-03
  0.16814847648122168E+02  0.12427743433261196E-01  0.12427720369574192E-01  0.21293076707219567E-02  0.21293125760201950E-02
  0.26964171121863824E+02  0.11842606154362791E+00  0.11842597716312005E+00  0.14496700839455163E-01  0.14496691205918164E-01
  0.29563320061825983E+02  0.10910463978591323E+00  0.10910458704679112E+00  0.12006678326660667E-01  0.12006680583934764E-01
  0.60019251704932657E+02  0.66581187791016572E-01  0.66581261071202394E-01  0.81459150545995626E-03  0.81459123913249119E-03
  0.10052965611369002E+03  0.12667785485008470E-02  0.12667785199351753E-02  0.65559812501073851E-02  0.65559811757865856E-02
  0.10400614416295576E+03  0.10832606791981446E-01  0.10832605476593765E-01  0.69223268514849584E-01  0.69223247628570808E-01
  0.10621871413903774E+03  0.29172904054239134E-01  0.29172887922667392E-01  0.23501583284664082E+00  0.23501582230407753E+00
  0.10814248314721638E+03  0.15458584236328163E-01  0.15458579206234325E-01  0.13807637636363504E+00  0.13807635023167139E+00
  0.11498063581379678E+03  0.51967641763501693E-02  0.51967613872378237E-02  0.85216625336400037E-01  0.85216634301679514E-01
  0.12548127213985856E+03  0.38676123366469728E-02  0.38676179360114409E-02  0.12787728707391788E+00  0.12787704227421762E+00
  0.12436144424707466E+02  0.61079243177449153E-02  0.61079140610836901E-02  0.11256197502377430E-02  0.11256217217237906E-02
  0.12704350663356671E+02  0.63676474930613736E-02  0.63676365284759326E-02  0.11693925825118441E-02  0.11693946859461805E-02
  0.24743612433896086E+02  0.53172746187959245E-01  0.53172721233774672E-01  0.72970300952796691E-02  0.72970338737414469E-02
  0.28364487420972416E+02  0.11942567077833394E+00  0.11942560647373172E+00  0.13865047106043613E-01  0.13865048454943683E-01
  0.33707085443469019E+02  0.94749563471473591E-01  0.94749634165781554E-01  0.87408068128080382E-02  0.87408045000527401E-02
  0.58815241555178773E+02  0.92867751304970686E-01  0.92867742977841450E-01  0.13400508586128641E-02  0.13400500149281451E-02
  0.10074969551736640E+03  0.13048711152174575E-02  0.13048710702522682E-02  0.70245266058865524E-02  0.70245264766055854E-02
  0.10403964153228063E+03  0.13190061262059998E-01  0.13190059670436323E-01  0.82709754000491131E-01  0.82709725833047296E-01
  0.10714075335115764E+03  0.19096657669493557E-01  0.19096654962149271E-01  0.15980182797471176E+00  0.15980175920006628E+00
  0.11136121074705805E+03  0.10170004157456501E-01  0.10169996687066682E-01  0.11792852105182923E+00  0.11792855861900192E+00
  0.12365034168943764E+03  0.38441942097365428E-02  0.38441990677499363E-02  0.11308783353470094E+00  0.11308765406257715E+00
  0.12498405722700110E+03  0.38116488000875335E-02  0.38116541836732314E-02  0.12572999482787175E+00  0.12572978189509820E+00
  0.16214085020212195E+02  0.11666469046373832E-01  0.11666447101436364E-01  0.20219062754185985E-02  0.20219104698463927E-02
  0.16596357494899170E+02  0.12205228780715801E-01  0.12205206111387944E-01  0.21005779117653071E-02  0.21005826610862280E-02
  0.29829404067078954E+02  0.10201376687232587E+00  0.10201377280445612E+00  0.11157099490176453E-01  0.11157104168985374E-01
  0.32093982614194019E+02  0.96389333394036630E-01  0.96389400012666174E-01  0.95542574856984867E-02  0.95542557493634873E-02
  0.38280482856662211E+02  0.68261479657882387E-01  0.68261516448775456E-01  0.51624711894429172E-02  0.51624711548703683E-02
  0.57481475190535683E+02  0.93316150650926397E-01  0.93316155707775322E-01  0.17770452219129551E-02  0.17770445305205383E-02
  0.10119333659290382E+03  0.23033377217523934E-02  0.23033376174190412E-02  0.12930058569082144E-01  0.12930058328337383E-01
  0.10406795870195718E+03  0.14756332596901827E-01  0.14756330610751378E-01  0.91867862594734354E-01  0.91867830709129489E-01
  0.10808206707652170E+03  0.15530312484762620E-01  0.15530307748204944E-01  0.13819697692210087E+00  0.13819695243751651E+00
  0.11473917731506432E+03  0.57977132105872867E-02  0.57977107458566822E-02  0.94366292493200790E-01  0.94366297297468343E-01
  0.12421372644626211E+03  0.39482881760712412E-02  0.39482939331260385E-02  0.12368138053611215E+00  0.12368117765340571E+00
  0.13053441290738365E+03  0.35852106631758980E-02  0.35852080851376034E-02  0.38631631345569295E-01  0.38631661217683362E-01
  0.19157858243804284E+02  0.19653328180437638E-01  0.19653157517241455E-01  0.31915939011832343E-02  0.31916226603605604E-02
  0.20563519153426864E+02  0.22343668074826795E-01  0.22343604668481967E-01  0.34954615592090290E-02  0.34954715317495810E-02
  0.31220516948471566E+02  0.10247521553136467E+00  0.10247529947539792E+00  0.10540766383472764E-01  0.10540749837119820E-01
  0.38685871386937194E+02  0.66843002548963304E-01  0.66843028177779026E-01  0.49714124365409689E-02  0.49714133717055509E-02
  0.42446270166836022E+02  0.57873804675641981E-01  0.57873821143759489E-01  0.34986951161086869E-02  0.34986964322850575E-02
  0.56359070303172544E+02  0.10292780452961550E+00  0.10292780481842657E+00  0.23924141864968586E-02  0.23924134722513634E-02
  0.10191694193636515E+03  0.30721417585047543E-02  0.30721415021697160E-02  0.18454932605407020E-01  0.18454932226269979E-01
  0.10410787221112246E+03  0.15815285466486032E-01  0.15815282846885433E-01  0.98517513434751014E-01  0.98517480899006221E-01
  0.10898927503091443E+03  0.12767815102157121E-01  0.12767805431559863E-01  0.12101469688753737E+00  0.12101471585621183E+00
  0.11749102671761671E+03  0.23603932623916064E-02  0.23603922902638418E-02  0.64041881908554421E-01  0.64041875019509947E-01
  0.12358116718006607E+03  0.36533488928520421E-02  0.36533533602724501E-02  0.10632273060555379E+00  0.10632257093554652E+00
  0.13394679475188119E+03  0.43196081186275799E-02  0.43196060720531310E-02  0.34477353959776191E-01  0.34477366708338092E-01
  0.21471454705000159E+02  0.27346254300886465E-01  0.27346235902302635E-01  0.41678236823189923E-02  0.41678266459903180E-02
  0.24226953607242972E+02  0.47974043118343898E-01  0.47973993438359855E-01  0.67001006063363211E-02  0.67001079802633829E-02
  0.32498881449985447E+02  0.97367039909973196E-01  0.97367110848646438E-01  0.94783957733617554E-02  0.94783937754854362E-02
  0.44317241493169327E+02  0.45770823943746083E-01  0.45770852823202104E-01  0.28569700046433577E-02  0.28569699130641842E-02
  0.45168945729715105E+02  0.33025426945862787E-01  0.33025451945164312E-01  0.22001759498406197E-02  0.22001755276514897E-02
  0.56040916096765763E+02  0.11609059133749691E+00  0.11609059016059829E+00  0.26795529307203424E-02  0.26795520983193388E-02
  0.10291408520785161E+03  0.40882669708799694E-02  0.40882664091704164E-02  0.26772782932827349E-01  0.26772782473256825E-01
  0.10428714446604381E+03  0.15263960636438725E-01  0.15263954252732402E-01  0.98364753798444268E-01  0.98364744185832201E-01
  0.10983441472299103E+03  0.11888890500147013E-01  0.11888882084835401E-01  0.11937664209732583E+00  0.11937665087030219E+00
  0.11873194239823080E+03  0.11109513776249266E-02  0.11109502912446591E-02  0.28025945589383532E-01  0.28025945735316894E-01
  0.12350304685955138E+03  0.34312911680236687E-02  0.34312952158882370E-02  0.98981287718616931E-01  0.98981147914691536E-01
  0.13403314046443657E+03  0.37899501978482554E-02  0.37899484664229129E-02  0.30554972908007298E-01  0.30554984893680998E-01
  0.23151820946680822E+02  0.36582892770473149E-01  0.36582884236656781E-01  0.53025552976655689E-02  0.53025568098989716E-02
  0.27506974097796693E+02  0.11314624515949996E+00  0.11314617731018005E+00  0.13578121595380745E-01  0.13578121261580417E-01
  0.33633963006644372E+02  0.95474058771582937E-01  0.95474134068127742E-01  0.88386192776822112E-02  0.88386166155235285E-02
  0.45488606575434062E+02  0.26352646417099158E-01  0.26352671293838333E-01  0.19336490287786470E-02  0.19336483056989801E-02
  0.49101653913782258E+02  0.18662973038334037E-01  0.18662975132281247E-01  0.18208448505330668E-02  0.18208445503896209E-02
  0.56849547882570334E+02  0.95503918423911413E-01  0.95503915897021299E-01  0.20719165772449728E-02  0.20719159564263059E-02
  0.10409531290368034E+03  0.15628428377627537E-01  0.15628425977908075E-01  0.97232124481269736E-01  0.97232091488072520E-01
  0.10471569407027684E+03  0.17483152476175431E-01  0.17483161791027640E-01  0.11639632182861333E+00  0.11639620706819141E+00
  0.11058151095885790E+03  0.10810147004864854E-01  0.10810134176271743E-01  0.11613556647377651E+00  0.11613556932893151E+00
  0.11833847856966781E+03  0.13421718184944240E-02  0.13421706234981227E-02  0.36882806759408110E-01  0.36882807637343265E-01
  0.12397803117253473E+03  0.40950317844699767E-02  0.40950375194387300E-02  0.12542878991224424E+00  0.12542858259394304E+00
  0.13196900128478097E+03  0.42948950323411931E-02  0.42948927348857432E-02  0.38423160678407703E-01  0.38423174415106821E-01
  0.24255280111448005E+02  0.48292731511676644E-01  0.48292681943128114E-01  0.67385381679300185E-02  0.67385455227558528E-02
  0.30333433817951775E+02  0.97478566211329290E-01  0.97478544750591797E-01  0.10416229627202312E-01  0.10416239914514045E-01
  0.34553565095014612E+02  0.94915723367898192E-01  0.94915783868708137E-01  0.83893638899192480E-02  0.83893628406599575E-02
  0.44396962833113641E+02  0.45035501015863975E-01  0.45035529332724075E-01  0.28119026969050300E-02  0.28119026516442887E-02
  0.52704094130480058E+02  0.33630921979971203E-01  0.33630894612495271E-01  0.22522777232879716E-02  0.22522777244940316E-02
  0.57897380407173522E+02  0.94538744851934656E-01  0.94538759600766686E-01  0.16623218222805625E-02  0.16623210611902450E-02
  0.10528119327842177E+03  0.21594924152402214E-01  0.21594902510768017E-01  0.15519727534698147E+00  0.15519733184767989E+00
  0.10533547023218854E+03  0.21926278888574877E-01  0.21926266131011476E-01  0.15902323842375352E+00  0.15902323758018841E+00
  0.11117776871346034E+03  0.10630857052320029E-01  0.10630850014992654E-01  0.12097364829930263E+00  0.12097368405752357E+00
  0.11733000820394248E+03  0.26273900329474879E-02  0.26273887805716577E-02  0.69448990737574698E-01  0.69448985927898194E-01
  0.12415448170058238E+03  0.39925056430940072E-02  0.39925114007470898E-02  0.12404017581201632E+00  0.12403997392944371E+00
  0.12939511222569115E+03  0.35324609156699291E-02  0.35324580707456542E-02  0.46131389582950211E-01  0.46131440118307589E-01
  0.24867498351800492E+02  0.56337902327479726E-01  0.56337882536067745E-01  0.77034047612029666E-02  0.77034078063604383E-02
  0.32511760648577635E+02  0.97450820591178794E-01  0.97450891738692411E-01  0.94804261366174692E-02  0.94804241238334933E-02
  0.35159927483193840E+02  0.94901671766524920E-01  0.94901741850106983E-01  0.81649034618438768E-02  0.81649020009829099E-02
  0.42931925224128740E+02  0.54225273621299579E-01  0.54225284601783774E-01  0.32846574447642622E-02  0.32846589990244428E-02
  0.55189208980743572E+02  0.78577094416122026E-01  0.78577077796261621E-01  0.26937788531008239E-02  0.26937784885520382E-02
  0.58340171887599638E+02  0.10010312536631914E+00  0.10010313238762999E+00  0.15319597777004434E-02  0.15319590972839173E-02
  0.10590261368090911E+03  0.29864185500647143E-01  0.29864181016279932E-01  0.23616395335466422E+00  0.23616385270328669E+00
  0.10620650654169773E+03  0.29345544495594966E-01  0.29345530558639567E-01  0.23626549213944445E+00  0.23626546584859212E+00
  0.11156454453184867E+03  0.10044072238227040E-01  0.10044065056859992E-01  0.11882739622466326E+00  0.11882743775550927E+00
  0.11642893546950013E+03  0.44494042490499817E-02  0.44494022214458077E-02  0.10205819867865057E+00  0.10205820100247383E+00
  0.12386419801795685E+03  0.38819698537358479E-02  0.38819751896514423E-02  0.11795214545630862E+00  0.11795195116383041E+00
  0.12762330392220525E+03  0.40350902938982780E-02  0.40350854717299779E-02  0.83117490657109494E-01  0.83117655579307101E-01
  0.25062014934173209E+02  0.60313174557171341E-01  0.60313163299939271E-01  0.81890240989765922E-02  0.81890258479666109E-02
  0.33429163097345374E+02  0.10018714937211298E+00  0.10018723316249947E+00  0.93323251573759029E-02  0.93323218786666301E-02
  0.35372324258123285E+02  0.91488374137218678E-01  0.91488439322073969E-01  0.78053461701362899E-02  0.78053449549538344E-02
  0.42203546056816393E+02  0.60704911358744978E-01  0.60704928545336427E-01  0.36665721516379490E-02  0.36665734702414120E-02
  0.56219057167177588E+02  0.10720454580754364E+00  0.10720454690784639E+00  0.25089865649193148E-02  0.25089858189579093E-02
  0.58285965498402710E+02  0.10029590493915007E+00  0.10029591437893455E+00  0.15520025427960449E-02  0.15520018544109117E-02
  0.10613339529522172E+03  0.29507093135279942E-01  0.29507091635047611E-01  0.23638155681280731E+00  0.23638144549922338E+00
  0.10656712344928961E+03  0.23301640105060313E-01  0.23301638728465770E-01  0.19097540505044833E+00  0.19097531148621419E+00
  0.11169846750372182E+03  0.95701363525562046E-02  0.95701308709985645E-02  0.11451390621151292E+00  0.11451394126785330E+00
  0.11606715980692532E+03  0.55483824614406835E-02  0.55483807434742764E-02  0.12221342696624536E+00  0.12221342751791885E+00
  0.12364125163979305E+03  0.38248282180543803E-02  0.38248330330053052E-02  0.11236145484607114E+00  0.11236127749358917E+00
  0.12705102540262411E+03  0.51593969914544655E-02  0.51593905703146625E-02  0.14756868446095062E+00  0.14756901174444984E+00
  0.70872631147755847E+01  0.17758305928342981E-02  0.17758283876776883E-02  0.34579119438895927E-03  0.34579161367748255E-03
  0.78007608328299218E+01  0.22730276280862409E-02  0.22730245054518655E-02  0.44042171837230156E-03  0.44042231334676416E-03
  0.14518817005577274E+02  0.83976391410661762E-02  0.83976244149640989E-02  0.14957075575988497E-02  0.14957101165674696E-02
  0.26697996812853543E+02  0.99239645406832222E-01  0.99239533580419162E-01  0.12407480173970364E-01  0.12407471731233941E-01
  0.28558860215583625E+02  0.11362293617387441E+00  0.11362291783997622E+00  0.13103087379569849E-01  0.13103087736194384E-01
  0.60288550320743632E+02  0.62192293942897263E-01  0.62192354162328753E-01  0.74484324150013307E-03  0.74484286209708459E-03
  0.10049779368657401E+03  0.12911819491647212E-02  0.12911819227298036E-02  0.66353281101928308E-02  0.66353280430363239E-02
  0.10436875640905939E+03  0.15936248928608943E-01  0.15936241520066018E-01  0.10293212413671299E+00  0.10293211910069956E+00
  0.10545575905591480E+03  0.24019489772480893E-01  0.24019496903815565E-01  0.17784942920942989E+00  0.17784928945345813E+00
  0.10762597277659195E+03  0.18139912790289914E-01  0.18139909564426470E-01  0.15573443258102826E+00  0.15573439497066274E+00
  0.11263193298867523E+03  0.77503782567782250E-02  0.77503736768853894E-02  0.10278225288577092E+00  0.10278227433307086E+00
  0.12559324701744600E+03  0.38597017819247490E-02  0.38597072108070697E-02  0.12900884184813402E+00  0.12900861416009748E+00
  0.10931425418931415E+02  0.44019498717917938E-02  0.44019435480373596E-02  0.82573517616676246E-03  0.82573640682858914E-03
  0.11778422796572837E+02  0.53952555831566409E-02  0.53952470098889782E-02  0.10020107102305441E-02  0.10020123670599706E-02
  0.21767758549187388E+02  0.28876362867028608E-01  0.28876322248958051E-01  0.43665480712269328E-02  0.43665544901570590E-02
  0.28045827198918619E+02  0.12047052950180079E+00  0.12047044408883642E+00  0.14151012612282713E-01  0.14151019157569817E-01
  0.31963964926444117E+02  0.96217047403858919E-01  0.96217108969765222E-01  0.95875384820912467E-02  0.95875375516093989E-02
  0.59265276773964729E+02  0.95742815363899253E-01  0.95742702507471245E-01  0.11915600914313294E-02  0.11915590502515068E-02
  0.10064998005575914E+03  0.12736998040314617E-02  0.12736997631979268E-02  0.67971375913480330E-02  0.67971374848551378E-02
  0.10458717459458425E+03  0.16679895938045440E-01  0.16679901100666309E-01  0.10939879150259273E+00  0.10939870357888819E+00
  0.10638900884404003E+03  0.25642737160062556E-01  0.25642714690606826E-01  0.20791844496349751E+00  0.20791848880748826E+00
  0.11018877666289094E+03  0.10951865448198744E-01  0.10951857456840580E-01  0.11399706219319410E+00  0.11399708491185442E+00
  0.12058016415019877E+03  0.53481152804746182E-03  0.53481137837770444E-03  0.14149320953756565E-01  0.14149290378060878E-01
  0.12515000765050542E+03  0.36896841731646523E-02  0.36896890416067839E-02  0.12155366720765891E+00  0.12155348460642294E+00
  0.14949851459937925E+02  0.92722741709047735E-02  0.92722567045917664E-02  0.16397842809473522E-02  0.16397872080162687E-02
  0.15511239827619976E+02  0.10367435471461283E-01  0.10367415313413340E-01  0.18175380978249079E-02  0.18175414304600649E-02
  0.28972934012718671E+02  0.10497308361069679E+00  0.10497303493876195E+00  0.11910989143355723E-01  0.11910989558054089E-01
  0.29563799294766856E+02  0.10910470382112049E+00  0.10910465120024755E+00  0.12006438113815418E-01  0.12006440399267843E-01
  0.36193214619892530E+02  0.75661339420373577E-01  0.75661395420385691E-01  0.62701867903592421E-02  0.62701852551548453E-02
  0.57990709787380297E+02  0.95318793136178234E-01  0.95318810809844182E-01  0.16287657270039173E-02  0.16287649844181587E-02
  0.10098596914386255E+03  0.22547804891743092E-02  0.22547803933033518E-02  0.12391970757219669E-01  0.12391970519533115E-01
  0.10467069835797318E+03  0.17169296226817080E-01  0.17169305687917170E-01  0.11366866529195294E+00  0.11366855028776622E+00
  0.10757781291827294E+03  0.18986155363208770E-01  0.18986146372056058E-01  0.16272230018972200E+00  0.16272228185503571E+00
  0.11328227567708186E+03  0.64317157110626811E-02  0.64317099806470877E-02  0.90361685378206116E-01  0.90361706603645758E-01
  0.12449946567100359E+03  0.37060066570958352E-02  0.37060119504570919E-02  0.12047079787482559E+00  0.12047060971644881E+00
  0.12801079080959829E+03  0.38473110708942548E-02  0.38473075636460629E-02  0.69253119652265993E-01  0.69253231555023109E-01
  0.18729210029581719E+02  0.17009765709648017E-01  0.17009727436955654E-01  0.27859821162410352E-02  0.27859893111937153E-02
  0.18928587916675088E+02  0.17576955974896315E-01  0.17576918072403358E-01  0.28665993304164850E-02  0.28666065234864940E-02
  0.31024133394076173E+02  0.98278718911340823E-01  0.98278690305610303E-01  0.10192102047305506E-01  0.10192106624863367E-01
  0.35696941876422784E+02  0.83087000878051959E-01  0.83087063122483776E-01  0.70166485360392151E-02  0.70166470747671005E-02
  0.40516107942536486E+02  0.64602646256881877E-01  0.64602674728459153E-01  0.43628509927388362E-02  0.43628515988464048E-02
  0.56729435143808175E+02  0.96596306835265350E-01  0.96596303057761138E-01  0.21328997881675830E-02  0.21328991209533426E-02
  0.10157767519912092E+03  0.23653441108193629E-02  0.23653439555294171E-02  0.13971658755618037E-01  0.13971658487218879E-01
  0.10472770767917604E+03  0.17557643366829623E-01  0.17557652404337799E-01  0.11709244225903447E+00  0.11709232891373618E+00
  0.10868274956571965E+03  0.14291408829410372E-01  0.14291405532613651E-01  0.13204749872265295E+00  0.13204744462443657E+00
  0.11623810332849729E+03  0.54416617115925787E-02  0.54416598240795136E-02  0.12170050125514395E+00  0.12170050297310325E+00
  0.12380182648065767E+03  0.38099182161745494E-02  0.38099233174246658E-02  0.11472273482750026E+00  0.11472254914487373E+00
  0.13273931095308311E+03  0.69283895215368372E-02  0.69283871107544857E-02  0.56153959316834201E-01  0.56153969596131240E-01
  0.21377828777124520E+02  0.26819644496253701E-01  0.26819632294666086E-01  0.40978554537715673E-02  0.40978574690103816E-02
  0.22657230847222003E+02  0.32791328802689888E-01  0.32791303345073186E-01  0.48318181074171003E-02  0.48318222571225944E-02
  0.32355699951489449E+02  0.96634405356352163E-01  0.96634474274204060E-01  0.94720978932826844E-02  0.94720959874728256E-02
  0.41681043247855456E+02  0.61652837380587779E-01  0.61652851480864378E-01  0.38547410764039115E-02  0.38547425697897440E-02
  0.43988808374960179E+02  0.47511906194384182E-01  0.47511935566286786E-01  0.29659308647109451E-02  0.29659305971002116E-02
  0.55934429475416223E+02  0.12539524665228094E+00  0.12539524046318265E+00  0.28821699180425482E-02  0.28821689714939639E-02
  0.10245084838544433E+03  0.32433156936238212E-02  0.32433153352635961E-02  0.20628615293117967E-01  0.20628615014766680E-01
  0.10483881899380441E+03  0.18601346432284397E-01  0.18601358996216052E-01  0.12618877630918007E+00  0.12618863777869829E+00
  0.10966844098960543E+03  0.12508052932851198E-01  0.12508044945401718E-01  0.12456420590135579E+00  0.12456419962067485E+00
  0.11822396988457434E+03  0.14237631151587096E-02  0.14237620087762350E-02  0.39175649136612492E-01  0.39175648800844565E-01
  0.12336065884653630E+03  0.30532039887503836E-02  0.30532074989856645E-02  0.87574999051448277E-01  0.87574880709139227E-01
  0.13416329018361105E+03  0.35650040413196635E-02  0.35650022611090561E-02  0.29045862316558195E-01  0.29045874513640057E-01
  0.23372136839815308E+02  0.38758737748330059E-01  0.38758719603492066E-01  0.55728871830135708E-02  0.55728900350659237E-02
  0.26079426149907608E+02  0.75409515086637208E-01  0.75409456646948078E-01  0.98009322219594561E-02  0.98009396293411277E-02
  0.33547862802393951E+02  0.96867735365081156E-01  0.96867815230314486E-01  0.89984202936831976E-02  0.89984172986689055E-02
  0.45441687460292229E+02  0.27568384131998767E-01  0.27568408143230767E-01  0.19810410780091554E-02  0.19810404788050320E-02
  0.46841099007149538E+02  0.16741269870827202E-01  0.16741284982470760E-01  0.16499819535133098E-02  0.16499810989949433E-02
  0.56208525452106180E+02  0.10751460941604835E+00  0.10751461055619628E+00  0.25161516329056093E-02  0.25161508832973562E-02
  0.10355760435224612E+03  0.50625832403458949E-02  0.50625823913963827E-02  0.34701289278124048E-01  0.34701287513156050E-01
  0.10514040437936337E+03  0.21824126519601271E-01  0.21824122484550654E-01  0.15375843723943730E+00  0.15375838575254824E+00
  0.11052458788104786E+03  0.10667909585012772E-01  0.10667901690787124E-01  0.11428603516707028E+00  0.11428606292565817E+00
  0.11854808842618340E+03  0.12196388612400219E-02  0.12196376588068235E-02  0.32831376639239407E-01  0.32831377863219588E-01
  0.12360546609640353E+03  0.37281160313973132E-02  0.37281206460712617E-02  0.10890739462037362E+00  0.10890722740534460E+00
  0.13294023096195696E+03  0.67446912696519958E-02  0.67446888687604858E-02  0.54647111158534677E-01  0.54647123236622276E-01
  0.24756545808958375E+02  0.53435445629345546E-01  0.53435421327981070E-01  0.73300677082628095E-02  0.73300713921812637E-02
  0.29111489664168310E+02  0.10421212477465953E+00  0.10421207083588023E+00  0.11748427446226388E-01  0.11748430773612789E-01
  0.34566595143402928E+02  0.94783990064778195E-01  0.94784050390454788E-01  0.83736825049843169E-02  0.83736814789701266E-02
  0.44992152427813586E+02  0.36420011688337611E-01  0.36420034451473307E-01  0.23559904435988296E-02  0.23559904043364841E-02
  0.50901943915393588E+02  0.23271375208848710E-01  0.23271368599931650E-01  0.19615245801641056E-02  0.19615245075376821E-02
  0.57271508113068919E+02  0.91847538352381158E-01  0.91847545924898980E-01  0.18426343505440037E-02  0.18426337945164021E-02
  0.10476009055052035E+03  0.17764659738415064E-01  0.17764668730978116E-01  0.11905543998167389E+00  0.11905532581139491E+00
  0.10568228673310469E+03  0.31245331299871514E-01  0.31245319428911102E-01  0.24276861386405174E+00  0.24276856204219252E+00
  0.11122396286987633E+03  0.10494580851469662E-01  0.10494573640492059E-01  0.11996879696768016E+00  0.11996883304393356E+00
  0.11775227225511078E+03  0.19165902318497208E-02  0.19165893681223432E-02  0.52403332731385338E-01  0.52403327012328554E-01
  0.12399687006483333E+03  0.40972675939816051E-02  0.40972733426913287E-02  0.12561190385709678E+00  0.12561169723360008E+00
  0.13049892761557325E+03  0.35772051354095798E-02  0.35772025503433618E-02  0.38715057999056279E-01  0.38715088233069531E-01
  0.25608793905997441E+02  0.68382552359505064E-01  0.68382521920333908E-01  0.90645234232643885E-02  0.90645274500767044E-02
  0.31645435227227782E+02  0.97592041917912806E-01  0.97592103151623630E-01  0.98580511978878967E-02  0.98580542114269486E-02
  0.35330917926073141E+02  0.92681562402007756E-01  0.92681628395104146E-01  0.79173788312615120E-02  0.79173775968413435E-02
  0.43599305332804740E+02  0.49700120253966432E-01  0.49700142926813788E-01  0.30663622538731729E-02  0.30663627346015111E-02
  0.53926151303174045E+02  0.45290953789814944E-01  0.45290913355847374E-01  0.24493219557987444E-02  0.24493217810368350E-02
  0.58060229106953379E+02  0.96537930324533505E-01  0.96537948483124136E-01  0.16079679247707976E-02  0.16079671968040781E-02
  0.10581710015422655E+03  0.29750154611387226E-01  0.29750137547808413E-01  0.23335658443024782E+00  0.23335656645303532E+00
  0.10633590149886946E+03  0.26700771256396864E-01  0.26700745215853562E-01  0.21621791521413761E+00  0.21621798141529919E+00
  0.11172168569190100E+03  0.94718631123697425E-02  0.94718578942270155E-02  0.11355683476144394E+00  0.11355686855635452E+00
  0.11675417633934634E+03  0.35753467830516167E-02  0.35753445480906768E-02  0.86676083275594604E-01  0.86676086703182748E-01
  0.12393569103642977E+03  0.40467018425372750E-02  0.40467074898944792E-02  0.12369792847245095E+00  0.12369772263679146E+00
  0.12832368661681883E+03  0.36849785869778272E-02  0.36849751871532639E-02  0.60611156545495003E-01  0.60611245994031185E-01
  0.26010005270487301E+02  0.74526562835288079E-01  0.74526507712850673E-01  0.97200388110412241E-02  0.97200458732475820E-02
  0.33303440626200327E+02  0.10178495752204089E+00  0.10178504215740608E+00  0.95204167937949762E-02  0.95204135369817387E-02
  0.35744912844416611E+02  0.82098012419286645E-01  0.82098074682736999E-01  0.69221290348894411E-02  0.69221274989720609E-02
  0.42367117894663750E+02  0.58345962039846100E-01  0.58345978947183672E-01  0.35326854725701694E-02  0.35326867578973366E-02
  0.55754890424386666E+02  0.11278205904683408E+00  0.11278204902717889E+00  0.28350274999440583E-02  0.28350266456774512E-02
  0.58173126721563172E+02  0.98727450137525749E-01  0.98727464349216060E-01  0.15800153366757014E-02  0.15800146336268279E-02
  0.10642123953622072E+03  0.25084433561413370E-01  0.25084414691416160E-01  0.20348282248630886E+00  0.20348284252544968E+00
  0.10683257871812445E+03  0.21128018120962624E-01  0.21128002628256443E-01  0.17406614903630699E+00  0.17406616993085819E+00
  0.11197606487138914E+03  0.86626399132804267E-02  0.86626359265859557E-02  0.10615771984872356E+00  0.10615774640957538E+00
  0.11609535797946374E+03  0.55244795791887218E-02  0.55244777835681200E-02  0.12205604763065336E+00  0.12205604851890507E+00