# LAMMPS data file written by OVITO Basic 3.2.1
20 atoms
3 atom types
0.0 12.9633582839 xlo xhi
0.0 3.0568605943 ylo yhi
0.0 5.7156783806 zlo zhi
8.1037714238e-11 -1.2504090853 -1.6412583808e-10 xy xz yz

Atoms  # atomic

1 1 6.8044350257 1.5284302971 4.6088221375
2 2 1.6129018187 1.5284302971 1.7411338059
3 2 3.3882665845 -1.1329754436e-10 3.8263864969
4 2 0.0738317589 3.0568605942 4.5021363112
5 2 5.1019359616 1.5284302971 1.1822209733
6 2 8.1193504112 -5.1184691811e-11 1.8202652894
7 2 10.0302708232 1.528430297 3.9385484568
8 2 11.5179182969 -3.4266217765e-11 1.1936182873
9 3 6.1780542229 3.0568605943 1.5457281422
10 3 11.980426075 1.528430297 4.2032184742
11 3 1.4929054849 -8.2834183776e-11 3.1914168917
12 3 3.6472489425 1.5284302971 2.4591147818
13 3 3.455760777 1.528430297 5.0424617587
14 3 1.9691749146 3.0568605943 0.5586413006
15 3 12.5889995206 1.5284302971 1.462517288
16 3 6.0660754394 -1.3927029907e-10 4.4153435048
17 3 7.9377300013 1.5284302971 3.3585115091
18 3 10.0328846157 3.0568605942 2.4773292376
19 3 9.657339903 -1.4507090271e-10 5.1152611672
20 3 8.4373378028 1.5284302971 0.5141081571
