  616

    1
0.0000000000e+00 0.0000000000e+00 0.0000000000e+00
0.0000000000e+00 0.0000000000e+00 0.0000000000e+00
     1      1      1
 1  1  1     0.0000000000e+00
 1  1  2     5.5723768969e+01
 1  1  3    -3.7229604926e+01
 1  2  1     5.5723768969e+01
 1  2  2     0.0000000000e+00
 1  2  3     0.0000000000e+00
 1  3  1    -3.7229604926e+01
 1  3  2     0.0000000000e+00
 1  3  3     0.0000000000e+00
 2  1  1     5.5723768969e+01
 2  1  2     0.0000000000e+00
 2  1  3     0.0000000000e+00
 2  2  1     0.0000000000e+00
 2  2  2    -5.5723768966e+01
 2  2  3    -3.7229604925e+01
 2  3  1     0.0000000000e+00
 2  3  2    -3.7229604925e+01
 2  3  3     0.0000000000e+00
 3  1  1    -3.7229604926e+01
 3  1  2     0.0000000000e+00
 3  1  3     0.0000000000e+00
 3  2  1     0.0000000000e+00
 3  2  2    -3.7229604925e+01
 3  2  3     0.0000000000e+00
 3  3  1     0.0000000000e+00
 3  3  2     0.0000000000e+00
 3  3  3     7.5928764479e+01

    2
0.0000000000e+00 0.0000000000e+00 0.0000000000e+00
0.0000000000e+00 0.0000000000e+00 0.0000000000e+00
     1      1      2
 1  1  1    -4.3545011619e-01
 1  1  2    -1.2419467458e-01
 1  1  3    -8.6455708838e-01
 1  2  1    -2.0823299338e-01
 1  2  2    -9.6630492734e-02
 1  2  3     7.3363419846e-01
 1  3  1    -6.9306844175e-01
 1  3  2     7.3854455003e-01
 1  3  3     1.8322193106e+00
 2  1  1    -2.0823299338e-01
 2  1  2    -9.6630492734e-02
 2  1  3     7.3363419846e-01
 2  2  1    -2.4218913066e-01
 2  2  2     5.1542987613e-01
 2  2  3    -1.7429284454e-02
 2  3  1     7.3854455003e-01
 2  3  2     1.5972934777e-01
 2  3  3    -1.0578323122e+00
 3  1  1    -6.9306844175e-01
 3  1  2     7.3854455003e-01
 3  1  3     1.8322193106e+00
 3  2  1     7.3854455003e-01
 3  2  2     1.5972934777e-01
 3  2  3    -1.0578323122e+00
 3  3  1     1.2740615230e+00
 3  3  2    -7.3557976327e-01
 3  3  3    -2.0675588832e+00

    3
0.0000000000e+00 0.0000000000e+00 0.0000000000e+00
0.0000000000e+00 0.0000000000e+00 0.0000000000e+00
     1      1      3
 1  1  1     0.0000000000e+00
 1  1  2     7.0746400574e-02
 1  1  3     5.8635317633e+00
 1  2  1     7.0746400574e-02
 1  2  2     0.0000000000e+00
 1  2  3     0.0000000000e+00
 1  3  1     4.7634069134e+00
 1  3  2     0.0000000000e+00
 1  3  3     0.0000000000e+00
 2  1  1     7.0746400574e-02
 2  1  2     0.0000000000e+00
 2  1  3     0.0000000000e+00
 2  2  1     0.0000000000e+00
 2  2  2    -7.0746400571e-02
 2  2  3     5.8635317630e+00
 2  3  1     0.0000000000e+00
 2  3  2     4.7634069132e+00
 2  3  3     0.0000000000e+00
 3  1  1     4.7634069134e+00
 3  1  2     0.0000000000e+00
 3  1  3     0.0000000000e+00
 3  2  1     0.0000000000e+00
 3  2  2     4.7634069132e+00
 3  2  3     0.0000000000e+00
 3  3  1     0.0000000000e+00
 3  3  2     0.0000000000e+00
 3  3  3    -6.5847236785e+01

    4
0.0000000000e+00 0.0000000000e+00 0.0000000000e+00
0.0000000000e+00 0.0000000000e+00 0.0000000000e+00
     1      1      4
 1  1  1     3.3220191452e+01
 1  1  2    -2.3571774879e+01
 1  1  3     1.6336478041e+01
 1  2  1    -2.4580727442e+01
 1  2  2     1.1655916184e+01
 1  2  3    -1.0465743873e+01
 1  3  1     1.6784378499e+01
 1  3  2    -1.0458725223e+01
 1  3  3     3.3838275985e+00
 2  1  1    -2.4580727442e+01
 2  1  2     1.1655916184e+01
 2  1  3    -1.0465743873e+01
 2  2  1     9.9083590833e+00
 2  2  2    -1.3285053819e+00
 2  2  3     4.2516779560e+00
 2  3  1    -1.0458725223e+01
 2  3  2     4.7076828525e+00
 2  3  3    -1.9536537748e+00
 3  1  1     1.6784378499e+01
 3  1  2    -1.0458725223e+01
 3  1  3     3.3838275985e+00
 3  2  1    -1.0458725223e+01
 3  2  2     4.7076828525e+00
 3  2  3    -1.9536537748e+00
 3  3  1     2.4015139349e+00
 3  3  2    -1.3865147168e+00
 3  3  3    -2.6923388269e+00

    5
0.0000000000e+00 0.0000000000e+00 0.0000000000e+00
3.1889305115e+00 0.0000000000e+00 0.0000000000e+00
     1      1      1
 1  1  1    -4.0156644562e+00
 1  1  2    -6.3853267288e-01
 1  1  3     4.4100653216e-01
 1  2  1    -4.4598974037e-02
 1  2  2     5.3480040401e-01
 1  2  3     8.6724456953e-02
 1  3  1    -1.3753301040e-02
 1  3  2     1.2405089814e-01
 1  3  3     6.8129963957e-01
 2  1  1    -4.4598974037e-02
 2  1  2     5.3480040401e-01
 2  1  3     8.6724456953e-02
 2  2  1     6.3402283081e-01
 2  2  2    -3.9994032390e-01
 2  2  3     9.8186139167e-02
 2  3  1     2.5039754714e-02
 2  3  2    -1.6555522396e-02
 2  3  3    -3.9949660344e-02
 3  1  1    -1.3753301040e-02
 3  1  2     1.2405089814e-01
 3  1  3     6.8129963957e-01
 3  2  1     2.5039754714e-02
 3  2  2    -1.6555522396e-02
 3  2  3    -3.9949660344e-02
 3  3  1     6.3353881794e-01
 3  3  2    -2.6137104150e-01
 3  3  3     3.4206725344e-01

    6
0.0000000000e+00 0.0000000000e+00 0.0000000000e+00
3.1889305115e+00 0.0000000000e+00 0.0000000000e+00
     1      1      2
 1  1  1     4.3545011617e-01
 1  1  2    -1.2419467457e-01
 1  1  3    -8.6455708844e-01
 1  2  1    -2.0823299336e-01
 1  2  2     9.6630492753e-02
 1  2  3    -7.3363419846e-01
 1  3  1    -6.9306844180e-01
 1  3  2    -7.3854455002e-01
 1  3  3    -1.8322193107e+00
 2  1  1    -2.0823299336e-01
 2  1  2     9.6630492753e-02
 2  1  3    -7.3363419846e-01
 2  2  1     2.4218913068e-01
 2  2  2     5.1542987613e-01
 2  2  3    -1.7429284454e-02
 2  3  1    -7.3854455002e-01
 2  3  2     1.5972934777e-01
 2  3  3    -1.0578323122e+00
 3  1  1    -6.9306844180e-01
 3  1  2    -7.3854455002e-01
 3  1  3    -1.8322193107e+00
 3  2  1    -7.3854455002e-01
 3  2  2     1.5972934777e-01
 3  2  3    -1.0578323122e+00
 3  3  1    -1.2740615230e+00
 3  3  2    -7.3557976327e-01
 3  3  3    -2.0675588832e+00

    7
0.0000000000e+00 0.0000000000e+00 0.0000000000e+00
3.1889305115e+00 0.0000000000e+00 0.0000000000e+00
     1      1      4
 1  1  1    -3.3220191454e+01
 1  1  2    -2.3571774880e+01
 1  1  3     1.6336478042e+01
 1  2  1    -2.4580727443e+01
 1  2  2    -1.1655916184e+01
 1  2  3     1.0465743874e+01
 1  3  1     1.6784378500e+01
 1  3  2     1.0458725224e+01
 1  3  3    -3.3838275985e+00
 2  1  1    -2.4580727443e+01
 2  1  2    -1.1655916184e+01
 2  1  3     1.0465743874e+01
 2  2  1    -9.9083590833e+00
 2  2  2    -1.3285053819e+00
 2  2  3     4.2516779560e+00
 2  3  1     1.0458725224e+01
 2  3  2     4.7076828525e+00
 2  3  3    -1.9536537748e+00
 3  1  1     1.6784378500e+01
 3  1  2     1.0458725224e+01
 3  1  3    -3.3838275985e+00
 3  2  1     1.0458725224e+01
 3  2  2     4.7076828525e+00
 3  2  3    -1.9536537748e+00
 3  3  1    -2.4015139349e+00
 3  3  2    -1.3865147168e+00
 3  3  3    -2.6923388269e+00

    8
0.0000000000e+00 0.0000000000e+00 0.0000000000e+00
-3.1889305115e+00 0.0000000000e+00 0.0000000000e+00
     1      1      1
 1  1  1     4.0156644562e+00
 1  1  2    -6.3853267292e-01
 1  1  3     4.4100653215e-01
 1  2  1    -4.4598974080e-02
 1  2  2    -5.3480040402e-01
 1  2  3    -8.6724456950e-02
 1  3  1    -1.3753301045e-02
 1  3  2    -1.2405089814e-01
 1  3  3    -6.8129963957e-01
 2  1  1    -4.4598974080e-02
 2  1  2    -5.3480040402e-01
 2  1  3    -8.6724456950e-02
 2  2  1    -6.3402283082e-01
 2  2  2    -3.9994032390e-01
 2  2  3     9.8186139167e-02
 2  3  1    -2.5039754715e-02
 2  3  2    -1.6555522396e-02
 2  3  3    -3.9949660344e-02
 3  1  1    -1.3753301045e-02
 3  1  2    -1.2405089814e-01
 3  1  3    -6.8129963957e-01
 3  2  1    -2.5039754715e-02
 3  2  2    -1.6555522396e-02
 3  2  3    -3.9949660344e-02
 3  3  1    -6.3353881795e-01
 3  3  2    -2.6137104150e-01
 3  3  3     3.4206725344e-01

    9
0.0000000000e+00 0.0000000000e+00 0.0000000000e+00
-1.5944652557e+00 2.7616948338e+00 0.0000000000e+00
     1      1      1
 1  1  1     2.8042635401e-01
 1  1  2    -4.9283734228e-01
 1  1  3     2.5899682026e-01
 1  2  1    -8.7573333392e-01
 1  2  2     1.8449879970e+00
 1  2  3    -1.9180781310e-01
 1  3  1     4.8703179362e-02
 1  3  2     1.1019511058e-02
 1  3  3    -3.0605239904e-01
 2  1  1    -8.7573333392e-01
 2  1  2     1.8449879970e+00
 2  1  3    -1.9180781310e-01
 2  2  1     2.3097384549e+00
 2  2  2    -1.9165137132e+00
 2  2  3     2.8019585104e-01
 2  3  1    -8.7991632369e-02
 2  3  2    -7.9012002799e-02
 2  3  3     6.0999762561e-01
 3  1  1     4.8703179362e-02
 3  1  2     1.1019511058e-02
 3  1  3    -3.0605239904e-01
 3  2  1    -8.7991632369e-02
 3  2  2    -7.9012002799e-02
 3  2  3     6.0999762561e-01
 3  3  1    -9.0415447207e-02
 3  3  2     6.7934623136e-01
 3  3  3     3.4206725344e-01

   10
0.0000000000e+00 0.0000000000e+00 0.0000000000e+00
1.5944652558e+00 2.7616948338e+00 0.0000000000e+00
     1      1      1
 1  1  1    -2.8042635409e-01
 1  1  2    -4.9283734241e-01
 1  1  3     2.5899682027e-01
 1  2  1    -8.7573333407e-01
 1  2  2    -1.8449879970e+00
 1  2  3     1.9180781311e-01
 1  3  1     4.8703179365e-02
 1  3  2    -1.1019511061e-02
 1  3  3     3.0605239906e-01
 2  1  1    -8.7573333407e-01
 2  1  2    -1.8449879970e+00
 2  1  3     1.9180781311e-01
 2  2  1    -2.3097384550e+00
 2  2  2    -1.9165137132e+00
 2  2  3     2.8019585104e-01
 2  3  1     8.7991632366e-02
 2  3  2    -7.9012002799e-02
 2  3  3     6.0999762561e-01
 3  1  1     4.8703179365e-02
 3  1  2    -1.1019511061e-02
 3  1  3     3.0605239906e-01
 3  2  1     8.7991632366e-02
 3  2  2    -7.9012002799e-02
 3  2  3     6.0999762561e-01
 3  3  1     9.0415447232e-02
 3  3  2     6.7934623136e-01
 3  3  3     3.4206725344e-01

   11
0.0000000000e+00 0.0000000000e+00 0.0000000000e+00
1.5944652557e+00 -2.7616948338e+00 0.0000000000e+00
     1      1      1
 1  1  1     5.5422796923e-01
 1  1  2     8.8552729235e-01
 1  1  3     1.0878565456e-01
 1  2  1     6.7448958517e-01
 1  2  2    -1.9096776701e+00
 1  2  3    -1.0508335614e-01
 1  3  1    -8.0413113478e-02
 1  3  2    -1.3446305939e-02
 1  3  3     3.7524724050e-01
 2  1  1     6.7448958517e-01
 2  1  2    -1.9096776701e+00
 2  1  3    -1.0508335614e-01
 2  2  1    -1.3457047854e+00
 2  2  2     2.5622967599e+00
 2  2  3     4.3040701674e-01
 2  3  1     8.5564837489e-02
 2  3  2     5.0104290038e-02
 2  3  3    -5.7004796527e-01
 3  1  1    -8.0413113478e-02
 3  1  2    -1.3446305939e-02
 3  1  3     3.7524724050e-01
 3  2  1     8.5564837489e-02
 3  2  2     5.0104290038e-02
 3  2  3    -5.7004796527e-01
 3  3  1     5.4312337072e-01
 3  3  2    -4.1797518986e-01
 3  3  3     3.4206725344e-01

   12
0.0000000000e+00 0.0000000000e+00 0.0000000000e+00
1.5944652557e+00 -2.7616948338e+00 0.0000000000e+00
     1      1      2
 1  1  1    -2.3443597374e-11
 1  1  2    -5.4367855395e-01
 1  1  3     4.0613461752e-01
 1  2  1    -3.7560191637e-01
 1  2  2    -4.3232546069e-12
 1  2  3    -2.3321281124e-11
 1  3  1     5.8612824255e-01
 1  3  2    -2.0267851826e-11
 1  3  3     3.8303910132e-11
 2  1  1    -3.7560191637e-01
 2  1  2    -4.3232581848e-12
 2  1  3    -2.3321281124e-11
 2  2  1    -4.3232322831e-12
 2  2  2    -2.3879184920e-01
 2  2  3    -1.2881209903e+00
 2  3  1    -2.0267851826e-11
 2  3  2    -1.1194673365e+00
 2  3  3     2.1156646244e+00
 3  1  1     5.8612824255e-01
 3  1  2    -2.0267851826e-11
 3  1  3     3.8303910132e-11
 3  2  1    -2.0267851826e-11
 3  2  2    -1.1194673365e+00
 3  2  3     2.1156646244e+00
 3  3  1     2.6635205620e-11
 3  3  2     1.4711595265e+00
 3  3  3    -2.0675588832e+00

   13
0.0000000000e+00 0.0000000000e+00 0.0000000000e+00
1.5944652557e+00 -2.7616948338e+00 0.0000000000e+00
     1      1      4
 1  1  1    -2.7508984973e-10
 1  1  2    -6.4099935274e+00
 1  1  3    -1.7907220866e+00
 1  2  1    -4.3920884022e+00
 1  2  2     1.0176870596e-09
 1  2  3     4.0516641526e-10
 1  3  1    -1.3306649706e+00
 1  3  2     4.1320217041e-10
 1  3  3     7.0741437709e-11
 2  1  1    -4.3920884022e+00
 2  1  2     1.0176858024e-09
 2  1  3     4.0516641526e-10
 2  2  1     1.0176900502e-09
 2  2  2     5.6210554048e+01
 2  2  3     2.2378878083e+01
 2  3  1     4.1320217041e-10
 2  3  2     2.2822726322e+01
 2  3  3     3.9073075497e+00
 3  1  1    -1.3306649706e+00
 3  1  2     4.1320217041e-10
 3  1  3     7.0741437709e-11
 3  2  1     4.1320217041e-10
 3  2  2     2.2822726322e+01
 3  2  3     3.9073075497e+00
 3  3  1     5.0205438513e-11
 3  3  2     2.7730294335e+00
 3  3  3    -2.6923388269e+00

   14
0.0000000000e+00 0.0000000000e+00 0.0000000000e+00
-1.5944652558e+00 -2.7616948338e+00 0.0000000000e+00
     1      1      1
 1  1  1    -5.5422796915e-01
 1  1  2     8.8552729249e-01
 1  1  3     1.0878565457e-01
 1  2  1     6.7448958529e-01
 1  2  2     1.9096776702e+00
 1  2  3     1.0508335616e-01
 1  3  1    -8.0413113481e-02
 1  3  2     1.3446305941e-02
 1  3  3    -3.7524724053e-01
 2  1  1     6.7448958529e-01
 2  1  2     1.9096776702e+00
 2  1  3     1.0508335616e-01
 2  2  1     1.3457047854e+00
 2  2  2     2.5622967599e+00
 2  2  3     4.3040701674e-01
 2  3  1    -8.5564837487e-02
 2  3  2     5.0104290038e-02
 2  3  3    -5.7004796527e-01
 3  1  1    -8.0413113481e-02
 3  1  2     1.3446305941e-02
 3  1  3    -3.7524724053e-01
 3  2  1    -8.5564837487e-02
 3  2  2     5.0104290038e-02
 3  2  3    -5.7004796527e-01
 3  3  1    -5.4312337073e-01
 3  3  2    -4.1797518986e-01
 3  3  3     3.4206725344e-01

   15
0.0000000000e+00 0.0000000000e+00 0.0000000000e+00
0.0000000000e+00 0.0000000000e+00 -5.1923570633e+00
     1      1      2
 1  1  1     2.4662133333e-01
 1  1  2    -4.3990975261e-01
 1  1  3     4.4936580461e-01
 1  2  1    -2.8781187698e-01
 1  2  2    -5.6066383217e-03
 1  2  3    -6.5443090948e-01
 1  3  1     8.2948180485e-01
 1  3  2    -8.4139377833e-01
 1  3  3     1.6151868666e+00
 2  1  1    -2.8781187698e-01
 2  1  2    -5.6066383217e-03
 2  1  3    -6.5443090948e-01
 2  2  1     2.5783460999e-01
 2  2  2     1.4866197793e-01
 2  2  3    -3.0630591888e-01
 2  3  1    -8.4139377833e-01
 2  3  2    -1.4207604395e-01
 2  3  3    -9.3252857224e-01
 3  1  1     8.2948180485e-01
 3  1  2    -8.4139377833e-01
 3  1  3     1.6151868666e+00
 3  2  1    -8.4139377833e-01
 3  2  2    -1.4207604395e-01
 3  2  3    -9.3252857224e-01
 3  3  1     2.3588499591e+00
 3  3  2    -1.3618826588e+00
 3  3  3     1.1662078727e+00

   16
0.0000000000e+00 0.0000000000e+00 0.0000000000e+00
0.0000000000e+00 0.0000000000e+00 -5.1923570633e+00
     1      1      3
 1  1  1     0.0000000000e+00
 1  1  2    -8.4068568050e-02
 1  1  3    -2.5344094859e-02
 1  2  1    -8.4068568050e-02
 1  2  2     0.0000000000e+00
 1  2  3     0.0000000000e+00
 1  3  1     8.7928757297e-02
 1  3  2     0.0000000000e+00
 1  3  3     0.0000000000e+00
 2  1  1    -8.4068568050e-02
 2  1  2     0.0000000000e+00
 2  1  3     0.0000000000e+00
 2  2  1     0.0000000000e+00
 2  2  2     8.4068568047e-02
 2  2  3    -2.5344094858e-02
 2  3  1     0.0000000000e+00
 2  3  2     8.7928757293e-02
 2  3  3     0.0000000000e+00
 3  1  1     8.7928757297e-02
 3  1  2     0.0000000000e+00
 3  1  3     0.0000000000e+00
 3  2  1     0.0000000000e+00
 3  2  2     8.7928757293e-02
 3  2  3     0.0000000000e+00
 3  3  1     0.0000000000e+00
 3  3  2     0.0000000000e+00
 3  3  3    -1.3528610971e+00

   17
0.0000000000e+00 0.0000000000e+00 0.0000000000e+00
3.1889305115e+00 0.0000000000e+00 -5.1923570633e+00
     1      1      2
 1  1  1    -2.4662133336e-01
 1  1  2    -4.3990975261e-01
 1  1  3     4.4936580466e-01
 1  2  1    -2.8781187699e-01
 1  2  2     5.6066383270e-03
 1  2  3     6.5443090947e-01
 1  3  1     8.2948180491e-01
 1  3  2     8.4139377832e-01
 1  3  3    -1.6151868667e+00
 2  1  1    -2.8781187699e-01
 2  1  2     5.6066383270e-03
 2  1  3     6.5443090947e-01
 2  2  1    -2.5783460998e-01
 2  2  2     1.4866197793e-01
 2  2  3    -3.0630591888e-01
 2  3  1     8.4139377832e-01
 2  3  2    -1.4207604395e-01
 2  3  3    -9.3252857224e-01
 3  1  1     8.2948180491e-01
 3  1  2     8.4139377832e-01
 3  1  3    -1.6151868667e+00
 3  2  1     8.4139377832e-01
 3  2  2    -1.4207604395e-01
 3  2  3    -9.3252857224e-01
 3  3  1    -2.3588499591e+00
 3  3  2    -1.3618826588e+00
 3  3  3     1.1662078727e+00

   18
0.0000000000e+00 0.0000000000e+00 0.0000000000e+00
1.5944652557e+00 -2.7616948338e+00 -5.1923570633e+00
     1      1      2
 1  1  1    -1.0652361262e-11
 1  1  2     6.6728918386e-03
 1  1  3    -6.8414178065e-01
 1  2  1    -2.9752285942e-01
 1  2  2     1.0425184990e-11
 1  2  3     1.4976436598e-11
 1  3  1    -6.2785496838e-01
 1  3  2     2.3812666300e-11
 1  3  3     3.3766685149e-11
 2  1  1    -2.9752285942e-01
 2  1  2     1.0425181486e-11
 2  1  3     1.4976436598e-11
 2  2  1     1.0425214562e-11
 2  2  2     5.7582265749e-01
 2  2  3     8.2720166636e-01
 2  3  1     2.3812666300e-11
 2  3  2     1.3152607292e+00
 2  3  3     1.8650571445e+00
 3  1  1    -6.2785496838e-01
 3  1  2     2.3812666300e-11
 3  1  3     3.3766685149e-11
 3  2  1     2.3812666300e-11
 3  2  2     1.3152607292e+00
 3  2  3     1.8650571445e+00
 3  3  1     4.9313516303e-11
 3  3  2     2.7237653177e+00
 3  3  3     1.1662078727e+00

   19
0.0000000000e+00 0.0000000000e+00 0.0000000000e+00
0.0000000000e+00 0.0000000000e+00 0.0000000000e+00
     1      2      1
 1  1  1    -4.3545011619e-01
 1  1  2    -2.0823299338e-01
 1  1  3    -6.9306844175e-01
 1  2  1    -1.2419467458e-01
 1  2  2    -9.6630492734e-02
 1  2  3     7.3854455003e-01
 1  3  1    -8.6455708838e-01
 1  3  2     7.3363419846e-01
 1  3  3     1.8322193106e+00
 2  1  1    -2.0823299338e-01
 2  1  2    -2.4218913066e-01
 2  1  3     7.3854455003e-01
 2  2  1    -9.6630492734e-02
 2  2  2     5.1542987613e-01
 2  2  3     1.5972934777e-01
 2  3  1     7.3363419846e-01
 2  3  2    -1.7429284454e-02
 2  3  3    -1.0578323122e+00
 3  1  1    -6.9306844175e-01
 3  1  2     7.3854455003e-01
 3  1  3     1.2740615230e+00
 3  2  1     7.3854455003e-01
 3  2  2     1.5972934777e-01
 3  2  3    -7.3557976327e-01
 3  3  1     1.8322193106e+00
 3  3  2    -1.0578323122e+00
 3  3  3    -2.0675588832e+00

   20
0.0000000000e+00 0.0000000000e+00 0.0000000000e+00
0.0000000000e+00 0.0000000000e+00 0.0000000000e+00
     1      2      2
 1  1  1    -2.4662133333e-01
 1  1  2     2.8781187698e-01
 1  1  3     8.2948180485e-01
 1  2  1     2.8781187698e-01
 1  2  2    -2.5783460999e-01
 1  2  3    -8.4139377833e-01
 1  3  1     8.2948180485e-01
 1  3  2    -8.4139377833e-01
 1  3  3    -2.3588499591e+00
 2  1  1     4.3990975261e-01
 2  1  2     5.6066383217e-03
 2  1  3    -8.4139377833e-01
 2  2  1     5.6066383217e-03
 2  2  2    -1.4866197793e-01
 2  2  3    -1.4207604395e-01
 2  3  1    -8.4139377833e-01
 2  3  2    -1.4207604395e-01
 2  3  3     1.3618826588e+00
 3  1  1     4.4936580461e-01
 3  1  2    -6.5443090948e-01
 3  1  3    -1.6151868666e+00
 3  2  1    -6.5443090948e-01
 3  2  2    -3.0630591888e-01
 3  2  3     9.3252857224e-01
 3  3  1    -1.6151868666e+00
 3  3  2     9.3252857224e-01
 3  3  3     1.1662078727e+00

   21
0.0000000000e+00 0.0000000000e+00 0.0000000000e+00
0.0000000000e+00 0.0000000000e+00 0.0000000000e+00
     1      2      3
 1  1  1     5.3729143338e-01
 1  1  2     9.0486022298e-02
 1  1  3    -3.3470016112e-02
 1  2  1     6.6975943296e-02
 1  2  2     2.3450640544e-01
 1  2  3     2.0017922714e-01
 1  3  1     2.2269576970e-01
 1  3  2     3.4174510435e-02
 1  3  3     2.7045046864e-01
 2  1  1     3.0745155163e-02
 2  1  2     1.7175283960e-01
 2  1  3     2.0017922714e-01
 2  2  1     1.3103218828e-01
 2  2  2    -4.7634284514e-01
 2  2  3     1.9767704523e-01
 2  3  1     3.4174510435e-02
 2  3  2     2.6215709528e-01
 2  3  3    -1.5614465087e-01
 3  1  1     3.7049054380e-01
 3  1  2    -1.0428245016e-01
 3  1  3     4.1158225646e-01
 3  2  1    -1.0428245016e-01
 3  2  2     2.5007554244e-01
 3  2  3    -2.3762712656e-01
 3  3  1    -2.8487377074e-01
 3  3  2     1.6447194822e-01
 3  3  3     3.2099965878e-01

   22
0.0000000000e+00 0.0000000000e+00 0.0000000000e+00
0.0000000000e+00 0.0000000000e+00 0.0000000000e+00
     1      2      4
 1  1  1    -7.5060394228e-02
 1  1  2    -9.4883748708e-03
 1  1  3    -2.4024252664e-02
 1  2  1     7.1130844799e-03
 1  2  2     6.4884332034e-03
 1  2  3    -3.2954057368e-02
 1  3  1     6.8767899687e-02
 1  3  2    -3.9473503398e-02
 1  3  3     1.5283811421e-01
 2  1  1    -2.8474862586e-02
 2  1  2    -5.5151699249e-02
 2  1  3    -3.2954057368e-02
 2  2  1    -2.6397128175e-02
 2  2  2     6.8064902737e-02
 2  2  3    -6.2076320444e-02
 2  3  1    -3.9473503398e-02
 2  3  2     2.3187824061e-02
 2  3  3    -8.8241126379e-02
 3  1  1     9.1123881889e-02
 3  1  2    -9.6311300608e-02
 3  1  3     4.0525634096e-03
 3  2  1    -9.6311300608e-02
 3  2  2    -2.0086828773e-02
 3  2  3    -2.3397485754e-03
 3  3  1    -3.4818094664e-02
 3  3  2     2.0102236327e-02
 3  3  3     1.8828310611e-01

   23
0.0000000000e+00 0.0000000000e+00 0.0000000000e+00
3.1889305115e+00 0.0000000000e+00 0.0000000000e+00
     1      2      2
 1  1  1     0.0000000000e+00
 1  1  2    -1.2646904195e-01
 1  1  3    -8.9558269961e-02
 1  2  1    -1.2646904195e-01
 1  2  2     0.0000000000e+00
 1  2  3     9.6999985458e-03
 1  3  1    -8.9558269961e-02
 1  3  2    -9.6999985458e-03
 1  3  3     0.0000000000e+00
 2  1  1    -2.3799452336e-01
 2  1  2     5.2917800462e-02
 2  1  3    -1.3543713989e-01
 2  2  1    -5.2917800462e-02
 2  2  2    -1.9004190340e-01
 2  2  3    -1.7107566513e-02
 2  3  1     1.3543713989e-01
 2  3  2    -1.7107566513e-02
 2  3  3     5.7874819380e-02
 3  1  1    -2.2096078027e-01
 3  1  2    -2.9325870572e-02
 3  1  3    -1.1170367019e-01
 3  2  1     2.9325870572e-02
 3  2  2     7.9719462296e-02
 3  2  3    -4.7605706326e-02
 3  3  1     1.1170367019e-01
 3  3  2    -4.7605706326e-02
 3  3  3     2.5544982224e-01

   24
0.0000000000e+00 0.0000000000e+00 0.0000000000e+00
-3.1889305115e+00 0.0000000000e+00 0.0000000000e+00
     1      2      1
 1  1  1     0.0000000000e+00
 1  1  2    -5.4704617537e-03
 1  1  3     4.0446480089e-03
 1  2  1    -4.6397886341e-03
 1  2  2    -1.6298144475e-02
 1  2  3     2.6555092987e-02
 1  3  1    -2.7657493618e-02
 1  3  2     7.8230655726e-03
 1  3  3     8.6523193337e-02
 2  1  1    -5.4704617537e-03
 2  1  2     0.0000000000e+00
 2  1  3    -1.8375724229e-02
 2  2  1     1.6298144475e-02
 2  2  2     2.0408681523e-02
 2  2  3    -1.3471550177e-02
 2  3  1    -7.8230655726e-03
 2  3  2    -5.6792002882e-02
 2  3  3    -2.7335202721e-02
 3  1  1     4.0446480089e-03
 3  1  2     1.8375724229e-02
 3  1  3     0.0000000000e+00
 3  2  1    -2.6555092987e-02
 3  2  2    -1.3471550177e-02
 3  2  3    -5.9820215135e-02
 3  3  1    -8.6523193337e-02
 3  3  2    -2.7335202721e-02
 3  3  3    -5.9441600238e-02

   25
0.0000000000e+00 0.0000000000e+00 0.0000000000e+00
-1.5944652557e+00 2.7616948338e+00 0.0000000000e+00
     1      2      1
 1  1  1    -9.8825043635e-03
 1  1  2    -2.4875398899e-02
 1  1  3    -1.2634271197e-02
 1  2  1    -1.1176128308e-02
 1  2  2    -1.1203445683e-02
 1  2  3    -2.8005302722e-02
 1  3  1    -4.9508375569e-02
 1  3  2    -2.0438678148e-02
 1  3  3     6.6934576642e-02
 2  1  1     3.3538154030e-03
 2  1  2    -3.7737574695e-03
 2  1  3     1.6925514494e-02
 2  2  1     5.0946987917e-03
 2  2  2     3.2916818624e-03
 2  2  3     3.2073690277e-03
 2  3  1    -4.7925470031e-03
 2  3  2    -3.4941120932e-02
 2  3  3    -6.1263682084e-02
 3  1  1    -5.5507300661e-03
 3  1  2    -3.2094987101e-02
 3  1  3     5.1805825969e-02
 3  2  1     1.2835830115e-02
 3  2  2    -3.8761721027e-03
 3  2  3     2.9910107566e-02
 3  3  1    -1.9588616692e-02
 3  3  2     8.8598884804e-02
 3  3  3    -5.9441600238e-02

   26
0.0000000000e+00 0.0000000000e+00 0.0000000000e+00
1.5944652557e+00 -2.7616948338e+00 0.0000000000e+00
     1      2      2
 1  1  1     2.2972586446e-01
 1  1  2    -3.7713334533e-03
 1  1  3     1.9225536929e-02
 1  2  1    -9.5427652482e-02
 1  2  2     1.4096455487e-01
 1  2  3    -7.2630779707e-02
 1  3  1    -8.9666021678e-02
 1  3  2     1.3537492941e-01
 1  3  3    -5.0121063824e-02
 2  1  1     6.1632477343e-03
 2  1  2     7.0839555030e-02
 2  1  3     7.2506358732e-02
 2  2  1     1.7921754570e-02
 2  2  2     2.0785496563e-01
 2  2  3    -1.2589137340e-01
 2  3  1    -9.7622090290e-03
 2  3  2    -1.6999814795e-02
 2  3  3    -2.8937409689e-02
 3  1  1     4.5494016642e-03
 3  1  2     1.5952423480e-01
 3  1  3    -1.4624084048e-02
 3  2  1     1.0087249366e-01
 3  2  2    -1.4579071962e-01
 3  2  3     1.2054106924e-01
 3  3  1     9.7079586140e-02
 3  3  2    -7.2935362917e-02
 3  3  3     2.5544982224e-01

   27
0.0000000000e+00 0.0000000000e+00 0.0000000000e+00
0.0000000000e+00 0.0000000000e+00 0.0000000000e+00
     1      3      1
 1  1  1     0.0000000000e+00
 1  1  2     7.0746400574e-02
 1  1  3     4.7634069134e+00
 1  2  1     7.0746400574e-02
 1  2  2     0.0000000000e+00
 1  2  3     0.0000000000e+00
 1  3  1     5.8635317633e+00
 1  3  2     0.0000000000e+00
 1  3  3     0.0000000000e+00
 2  1  1     7.0746400574e-02
 2  1  2     0.0000000000e+00
 2  1  3     0.0000000000e+00
 2  2  1     0.0000000000e+00
 2  2  2    -7.0746400571e-02
 2  2  3     4.7634069132e+00
 2  3  1     0.0000000000e+00
 2  3  2     5.8635317630e+00
 2  3  3     0.0000000000e+00
 3  1  1     4.7634069134e+00
 3  1  2     0.0000000000e+00
 3  1  3     0.0000000000e+00
 3  2  1     0.0000000000e+00
 3  2  2     4.7634069132e+00
 3  2  3     0.0000000000e+00
 3  3  1     0.0000000000e+00
 3  3  2     0.0000000000e+00
 3  3  3    -6.5847236785e+01

   28
0.0000000000e+00 0.0000000000e+00 0.0000000000e+00
0.0000000000e+00 0.0000000000e+00 0.0000000000e+00
     1      3      2
 1  1  1     5.3729143338e-01
 1  1  2     6.6975943296e-02
 1  1  3     2.2269576970e-01
 1  2  1     9.0486022298e-02
 1  2  2     2.3450640544e-01
 1  2  3     3.4174510435e-02
 1  3  1    -3.3470016112e-02
 1  3  2     2.0017922714e-01
 1  3  3     2.7045046864e-01
 2  1  1     3.0745155163e-02
 2  1  2     1.3103218828e-01
 2  1  3     3.4174510435e-02
 2  2  1     1.7175283960e-01
 2  2  2    -4.7634284514e-01
 2  2  3     2.6215709528e-01
 2  3  1     2.0017922714e-01
 2  3  2     1.9767704523e-01
 2  3  3    -1.5614465087e-01
 3  1  1     3.7049054380e-01
 3  1  2    -1.0428245016e-01
 3  1  3    -2.8487377074e-01
 3  2  1    -1.0428245016e-01
 3  2  2     2.5007554244e-01
 3  2  3     1.6447194822e-01
 3  3  1     4.1158225646e-01
 3  3  2    -2.3762712656e-01
 3  3  3     3.2099965878e-01

   29
0.0000000000e+00 0.0000000000e+00 0.0000000000e+00
0.0000000000e+00 0.0000000000e+00 0.0000000000e+00
     1      3      3
 1  1  1     0.0000000000e+00
 1  1  2    -5.0929996549e-01
 1  1  3    -5.9390418177e+00
 1  2  1    -5.0929996549e-01
 1  2  2     0.0000000000e+00
 1  2  3     0.0000000000e+00
 1  3  1    -5.9390418177e+00
 1  3  2     0.0000000000e+00
 1  3  3     0.0000000000e+00
 2  1  1    -5.0929996549e-01
 2  1  2     0.0000000000e+00
 2  1  3     0.0000000000e+00
 2  2  1     0.0000000000e+00
 2  2  2     5.0929996547e-01
 2  2  3    -5.9390418174e+00
 2  3  1     0.0000000000e+00
 2  3  2    -5.9390418174e+00
 2  3  3     0.0000000000e+00
 3  1  1    -5.3189778059e+00
 3  1  2     0.0000000000e+00
 3  1  3     0.0000000000e+00
 3  2  1     0.0000000000e+00
 3  2  2    -5.3189778057e+00
 3  2  3     0.0000000000e+00
 3  3  1     0.0000000000e+00
 3  3  2     0.0000000000e+00
 3  3  3     6.5685929622e+01

   30
0.0000000000e+00 0.0000000000e+00 0.0000000000e+00
0.0000000000e+00 0.0000000000e+00 0.0000000000e+00
     1      3      4
 1  1  1     2.3195710399e-01
 1  1  2    -1.4070040622e-01
 1  1  3     1.7361551155e-01
 1  2  1    -2.6176462519e-02
 1  2  2     1.2033325885e-02
 1  2  3    -4.1854596095e-02
 1  3  1    -5.1182601881e-02
 1  3  2    -9.9612276631e-03
 1  3  3     2.3278214371e-01
 2  1  1    -2.6899352063e-02
 2  1  2     1.0781244467e-02
 2  1  3    -4.1854596095e-02
 2  2  1     2.0914253362e-01
 2  2  2    -1.1396858829e-01
 2  2  3     1.2528598690e-01
 2  3  1    -9.9612276631e-03
 2  3  2    -6.2684836822e-02
 2  3  3    -1.3439683333e-01
 3  1  1    -1.8315282328e-01
 3  1  2     1.0056468496e-01
 3  1  3    -1.7360703001e-01
 3  2  1     1.0056468496e-01
 3  2  2    -6.7030727411e-02
 3  2  3     1.0023206551e-01
 3  3  1     1.9351273062e-01
 3  3  2    -1.1172462712e-01
 3  3  3    -2.6723068284e-01

   31
0.0000000000e+00 0.0000000000e+00 0.0000000000e+00
3.1889305115e+00 0.0000000000e+00 0.0000000000e+00
     1      3      2
 1  1  1    -5.3729143338e-01
 1  1  2     6.6975943282e-02
 1  1  3     2.2269576970e-01
 1  2  1     9.0486022283e-02
 1  2  2    -2.3450640546e-01
 1  2  3    -3.4174510425e-02
 1  3  1    -3.3470016126e-02
 1  3  2    -2.0017922714e-01
 1  3  3    -2.7045046864e-01
 2  1  1     3.0745155152e-02
 2  1  2    -1.3103218830e-01
 2  1  3    -3.4174510425e-02
 2  2  1    -1.7175283962e-01
 2  2  2    -4.7634284514e-01
 2  2  3     2.6215709528e-01
 2  3  1    -2.0017922714e-01
 2  3  2     1.9767704523e-01
 2  3  3    -1.5614465087e-01
 3  1  1     3.7049054381e-01
 3  1  2     1.0428245017e-01
 3  1  3     2.8487377074e-01
 3  2  1     1.0428245017e-01
 3  2  2     2.5007554244e-01
 3  2  3     1.6447194822e-01
 3  3  1    -4.1158225647e-01
 3  3  2    -2.3762712656e-01
 3  3  3     3.2099965878e-01

   32
0.0000000000e+00 0.0000000000e+00 0.0000000000e+00
3.1889305115e+00 0.0000000000e+00 0.0000000000e+00
     1      3      4
 1  1  1    -2.3195710399e-01
 1  1  2    -1.4070040622e-01
 1  1  3     1.7361551155e-01
 1  2  1    -2.6176462527e-02
 1  2  2    -1.2033325889e-02
 1  2  3     4.1854596099e-02
 1  3  1    -5.1182601880e-02
 1  3  2     9.9612276608e-03
 1  3  3    -2.3278214372e-01
 2  1  1    -2.6899352071e-02
 2  1  2    -1.0781244471e-02
 2  1  3     4.1854596099e-02
 2  2  1    -2.0914253363e-01
 2  2  2    -1.1396858829e-01
 2  2  3     1.2528598690e-01
 2  3  1     9.9612276608e-03
 2  3  2    -6.2684836822e-02
 2  3  3    -1.3439683333e-01
 3  1  1    -1.8315282328e-01
 3  1  2    -1.0056468496e-01
 3  1  3     1.7360703002e-01
 3  2  1    -1.0056468496e-01
 3  2  2    -6.7030727411e-02