 1444

    1
0.0000000000e+00 0.0000000000e+00 0.0000000000e+00
0.0000000000e+00 0.0000000000e+00 0.0000000000e+00
     1      1      1
 1  1  1    -2.6910641668e-07
 1  1  2     4.9514736320e-02
 1  1  3    -4.2029018340e-01
 1  2  1     4.9514736320e-02
 1  2  2    -3.2713333683e-08
 1  2  3    -1.9611793196e-08
 1  3  1    -4.2029018340e-01
 1  3  2    -1.9611793196e-08
 1  3  3    -1.3400560514e-07
 2  1  1     4.9514736320e-02
 2  1  2    -3.2713305633e-08
 2  1  3    -1.9611787507e-08
 2  2  1    -3.2713298982e-08
 2  2  2    -4.9514608258e-02
 2  2  3    -4.2028908982e-01
 2  3  1    -1.9611787507e-08
 2  3  2    -4.2028908982e-01
 2  3  3    -2.5796185654e-08
 3  1  1    -4.2029018340e-01
 3  1  2    -1.9611793196e-08
 3  1  3    -1.3400560514e-07
 3  2  1    -1.9611793196e-08
 3  2  2    -4.2028908982e-01
 3  2  3    -2.5796186056e-08
 3  3  1    -1.3400560514e-07
 3  3  2    -2.5796186457e-08
 3  3  3    -1.4608761303e+00

    2
0.0000000000e+00 0.0000000000e+00 0.0000000000e+00
0.0000000000e+00 0.0000000000e+00 0.0000000000e+00
     1      1      2
 1  1  1     3.3786330333e-01
 1  1  2     5.2874353525e-01
 1  1  3    -7.8205702011e-01
 1  2  1    -3.8473421146e-01
 1  2  2     6.4001715146e-01
 1  2  3     3.9974794149e-01
 1  3  1    -5.7641849685e-01
 1  3  2     3.3275960665e-01
 1  3  3    -8.0385547113e-01
 2  1  1    -3.8473420995e-01
 2  1  2     6.4001715193e-01
 2  1  3     3.9974794545e-01
 2  2  1    -9.4217172223e-01
 2  2  2    -1.7984480157e-01
 2  2  3    -3.2046550051e-01
 2  3  1     3.3275968976e-01
 2  3  2    -1.9217903900e-01
 2  3  3     4.6410525664e-01
 3  1  1    -5.7641849784e-01
 3  1  2     3.3275960665e-01
 3  1  3    -8.0385547113e-01
 3  2  1     3.3275968976e-01
 3  2  2    -1.9217903900e-01
 3  2  3     4.6410525664e-01
 3  3  1    -9.2054011667e-01
 3  3  2     5.3147302901e-01
 3  3  3    -6.9270588542e-05

    3
0.0000000000e+00 0.0000000000e+00 0.0000000000e+00
0.0000000000e+00 0.0000000000e+00 0.0000000000e+00
     1      1      3
 1  1  1    -1.6562394279e-07
 1  1  2     3.0474273583e-02
 1  1  3    -2.5867135806e-01
 1  2  1     3.0474273583e-02
 1  2  2    -2.0133709813e-08
 1  2  3    -1.2070253606e-08
 1  3  1    -2.5867134788e-01
 1  3  2    -1.2070253317e-08
 1  3  3     0.0000000000e+00
 2  1  1     3.0474273583e-02
 2  1  2    -2.0133692549e-08
 2  1  3    -1.2070257107e-08
 2  2  1    -2.0133705522e-08
 2  2  2    -3.0474194766e-02
 2  2  3    -2.5867068500e-01
 2  3  1    -1.2070253996e-08
 2  3  2    -2.5867067482e-01
 2  3  3    -1.5573591148e-08
 3  1  1    -2.5867134788e-01
 3  1  2    -1.2070253317e-08
 3  1  3     0.0000000000e+00
 3  2  1    -1.2070253317e-08
 3  2  2    -2.5867067482e-01
 3  2  3    -1.5573591148e-08
 3  3  1     0.0000000000e+00
 3  3  2    -1.5573590987e-08
 3  3  3    -4.4395000347e-01

    4
0.0000000000e+00 0.0000000000e+00 0.0000000000e+00
0.0000000000e+00 0.0000000000e+00 0.0000000000e+00
     1      1      4
 1  1  1    -9.0747048258e-01
 1  1  2     9.4234723322e-01
 1  1  3    -1.4553245277e-01
 1  2  1     3.8840924021e-01
 1  2  2     1.7327132635e-02
 1  2  3     3.1319512060e-02
 1  3  1    -4.0376578501e-01
 1  3  2     8.5140929074e-02
 1  3  3     2.3910226283e-02
 2  1  1     3.8840923973e-01
 2  1  2     1.7327133195e-02
 2  1  3     3.1319513435e-02
 2  2  1    -9.4212093311e-01
 2  2  2     1.2551377379e-01
 2  2  3    -1.0936736473e-01
 2  3  1     8.5140950729e-02
 2  3  2    -3.0545240872e-01
 2  3  3    -1.3804558115e-02
 3  1  1    -4.0376578535e-01
 3  1  2     8.5140929074e-02
 3  1  3     2.3910226283e-02
 3  2  1     8.5140950729e-02
 3  2  2    -3.0545240872e-01
 3  2  3    -1.3804558115e-02
 3  3  1    -3.1967027006e-01
 3  3  2     1.8456135006e-01
 3  3  3    -2.9330908476e-01

    5
0.0000000000e+00 0.0000000000e+00 0.0000000000e+00
3.2485568940e+00 9.8076385090e-07 -5.0513194390e-07
     1      1      1
 1  1  1    -2.8279321159e+00
 1  1  2     3.5179990173e-01
 1  1  3     8.5653719854e-03
 1  2  1     8.1185812354e-02
 1  2  2     5.7816607478e-01
 1  2  3    -2.6015591651e-02
 1  3  1    -5.4406967103e-03
 1  3  2    -6.0384574694e-02
 1  3  3     5.1781367292e-01
 2  1  1     8.1185812354e-02
 2  1  2     5.7816607478e-01
 2  1  3    -2.6015591651e-02
 2  2  1     5.1023759224e-01
 2  2  2     3.4109570196e-01
 2  2  3     7.6970915655e-02
 2  3  1    -7.0324375842e-02
 2  3  2    -7.0500879142e-02
 2  3  3     2.1301686946e-02
 3  1  1    -5.4406967103e-03
 3  1  2    -6.0384574694e-02
 3  1  3     5.1781367292e-01
 3  2  1    -7.0324375842e-02
 3  2  2    -7.0500879142e-02
 3  2  3     2.1301686946e-02
 3  3  1     6.6426602724e-01
 3  3  2     2.0429475303e-01
 3  3  3     1.8604022971e-01

    6
0.0000000000e+00 0.0000000000e+00 0.0000000000e+00
-3.2485568940e+00 -9.8076385090e-07 5.0513194390e-07
     1      1      1
 1  1  1     2.8279318337e+00
 1  1  2     3.5180228571e-01
 1  1  3     8.5640887515e-03
 1  2  1     8.1188150314e-02
 1  2  2    -5.7816602551e-01
 1  2  3     2.6015537182e-02
 1  3  1    -5.4420760656e-03
 1  3  2     6.0384574613e-02
 1  3  3    -5.1781361813e-01
 2  1  1     8.1188150314e-02
 2  1  2    -5.7816602551e-01
 2  1  3     2.6015537182e-02
 2  2  1    -5.1023765293e-01
 2  2  2     3.4109469566e-01
 2  2  3     7.6971105750e-02
 2  3  1     7.0324393602e-02
 2  3  2    -7.0500620415e-02
 2  3  3     2.1301344322e-02
 3  1  1    -5.4420760656e-03
 3  1  2     6.0384574613e-02
 3  1  3    -5.1781361813e-01
 3  2  1     7.0324393602e-02
 3  2  2    -7.0500620415e-02
 3  2  3     2.1301344322e-02
 3  3  1    -6.6426606821e-01
 3  3  2     2.0429431438e-01
 3  3  3     1.8604075835e-01

    7
0.0000000000e+00 0.0000000000e+00 0.0000000000e+00
-3.2485568940e+00 -9.8076385090e-07 5.0513194390e-07
     1      1      2
 1  1  1    -3.3786387073e-01
 1  1  2     5.2874378973e-01
 1  1  3    -7.8205589370e-01
 1  2  1    -3.8473484620e-01
 1  2  2    -6.4001703541e-01
 1  2  3    -3.9974795523e-01
 1  3  1    -5.7641740251e-01
 1  3  2    -3.3275982159e-01
 1  3  3     8.0385563965e-01
 2  1  1    -3.8473484654e-01
 2  1  2    -6.4001703696e-01
 2  1  3    -3.9974795127e-01
 2  2  1     9.4217123955e-01
 2  2  2    -1.7984500800e-01
 2  2  3    -3.2046627754e-01
 2  3  1    -3.3275964487e-01
 2  3  2    -1.9217924204e-01
 2  3  3     4.6410596982e-01
 3  1  1    -5.7641740275e-01
 3  1  2    -3.3275982202e-01
 3  1  3     8.0385563965e-01
 3  2  1    -3.3275964530e-01
 3  2  2    -1.9217924278e-01
 3  2  3     4.6410596982e-01
 3  3  1     9.2054018438e-01
 3  3  2     5.3147379181e-01
 3  3  3    -7.0056845469e-05

    8
0.0000000000e+00 0.0000000000e+00 0.0000000000e+00
-3.2485568940e+00 -9.8076385090e-07 5.0513194390e-07
     1      1      4
 1  1  1     9.0746919711e-01
 1  1  2     9.4234773809e-01
 1  1  3    -1.4553271769e-01
 1  2  1     3.8840923908e-01
 1  2  2    -1.7326508673e-02
 1  2  3    -3.1319667470e-02
 1  3  1    -4.0376586679e-01
 1  3  2    -8.5141231999e-02
 1  3  3    -2.3910154200e-02
 2  1  1     3.8840923981e-01
 2  1  2    -1.7326508540e-02
 2  1  3    -3.1319666095e-02
 2  2  1     9.4212129403e-01
 2  2  2     1.2551432085e-01
 2  2  3    -1.0936769589e-01
 2  3  1    -8.5141153218e-02
 2  3  2    -3.0545250623e-01
 2  3  3    -1.3804536334e-02
 3  1  1    -4.0376586688e-01
 3  1  2    -8.5141232148e-02
 3  1  3    -2.3910154200e-02
 3  2  1    -8.5141153367e-02
 3  2  2    -3.0545250649e-01
 3  2  3    -1.3804536334e-02
 3  3  1     3.1967031392e-01
 3  3  2     1.8456159604e-01
 3  3  3    -2.9330916930e-01

    9
0.0000000000e+00 0.0000000000e+00 0.0000000000e+00
-1.6242792166e+00 2.8133286356e+00 3.3564946800e-07
     1      1      1
 1  1  1    -6.0434440029e-01
 1  1  2    -6.4220537332e-01
 1  1  3     3.7339348071e-02
 1  2  1    -4.4807043758e-01
 1  2  2     1.3635152405e+00
 1  2  3     4.2628814802e-02
 1  3  1    -1.1083484712e-01
 1  3  2     9.4757578111e-03
 1  3  3    -2.7735457460e-01
 2  1  1    -4.4807043758e-01
 2  1  2     1.3635152405e+00
 2  1  3     4.2628814802e-02
 2  2  1     1.1631211250e+00
 2  2  2    -1.7114169194e+00
 2  2  3     4.8196193672e-02
 2  3  1    -4.6409301050e-04
 2  3  2     3.4892099912e-02
 2  3  3     4.3778834331e-01
 3  1  1    -1.1083484712e-01
 3  1  2     9.4757578111e-03
 3  1  3    -2.7735457460e-01
 3  2  1    -4.6409301050e-04
 3  2  2     3.4892099912e-02
 3  2  3     4.3778834331e-01
 3  3  1    -5.0905757755e-01
 3  3  2     4.7312310205e-01
 3  3  3     1.8604069198e-01

   10
0.0000000000e+00 0.0000000000e+00 0.0000000000e+00
-1.6242792166e+00 2.8133286356e+00 3.3564946800e-07
     1      1      2
 1  1  1    -1.1155265721e-07
 1  1  2    -1.1031473409e+00
 1  1  3    -8.9671876936e-02
 1  2  1     7.2380904206e-01
 1  2  2    -3.6606712195e-07
 1  2  3    -3.1976125811e-08
 1  3  1    -6.0465348205e-05
 1  3  2     1.8924242804e-07
 1  3  3     2.6786598520e-07
 2  1  1     7.2380904089e-01
 2  1  2    -3.6499347029e-07
 2  1  3    -2.8016341757e-08
 2  2  1     1.4189575453e-07
 2  2  2     4.0534970264e-01
 2  2  3    -1.0128486954e+00
 2  3  1    -7.0343603425e-08
 2  3  2    -7.6853507314e-01
 2  3  3    -9.2821130935e-01
 3  1  1    -6.0465595689e-05
 3  1  2     1.8967108842e-07
 3  1  3     2.6786598856e-07
 3  2  1    -6.9914949965e-08
 3  2  2    -7.6853507388e-01
 3  2  3    -9.2821130935e-01
 3  3  1     2.9079082953e-07
 3  3  2    -1.0629468889e+00
 3  3  3    -6.9793039601e-05

   11
0.0000000000e+00 0.0000000000e+00 0.0000000000e+00
-1.6242792166e+00 2.8133286356e+00 3.3564946800e-07
     1      1      4
 1  1  1    -1.5024489322e-07
 1  1  2    -6.8945627873e-01
 1  1  3    -9.1285442827e-02
 1  2  1     4.1842021283e-01
 1  2  2     2.3192779030e-07
 1  2  3    -4.3342076186e-08
 1  3  1    -2.5629695626e-01
 1  3  2     8.6877636017e-08
 1  3  3    -6.6534776687e-09
 2  1  1     4.1842021259e-01
 2  1  2     2.3123439181e-07
 2  1  3    -4.1966987280e-08
 2  2  1     6.1845216574e-07
 2  2  2    -1.4462636708e+00
 2  2  3    -1.6361462574e-01
 2  3  1    -1.3474672446e-08
 2  3  2    -4.5292098825e-01
 2  3  3     2.7609051155e-02
 3  1  1    -2.5629695635e-01
 3  1  2     8.7026493720e-08
 3  1  3    -6.6534777685e-09
 3  2  1    -1.3325815438e-08
 3  2  2    -4.5292098851e-01
 3  2  3     2.7609051155e-02
 3  3  1     1.2753663313e-07
 3  3  2    -3.6912300951e-01
 3  3  3    -2.9330914093e-01

   12
0.0000000000e+00 0.0000000000e+00 0.0000000000e+00
1.6242776774e+00 2.8133296163e+00 -1.6948247590e-07
     1      1      1
 1  1  1     6.0434517516e-01
 1  1  2    -6.4220352324e-01
 1  1  3     3.7339407801e-02
 1  2  1    -4.4806870556e-01
 1  2  2    -1.3635149498e+00
 1  2  3    -4.2628520626e-02
 1  3  1    -1.1083474514e-01
 1  3  2    -9.4754726471e-03
 1  3  3     2.7735442535e-01
 2  1  1    -4.4806870556e-01
 2  1  2    -1.3635149498e+00
 2  1  3    -4.2628520626e-02
 2  2  1    -1.1631207123e+00
 2  2  2    -1.7114192683e+00
 2  2  3     4.8196503909e-02
 2  3  1     4.6430499537e-04
 2  3  2     3.4892518508e-02
 2  3  3     4.3778852390e-01
 3  1  1    -1.1083474514e-01
 3  1  2    -9.4754726471e-03
 3  1  3     2.7735442535e-01
 3  2  1     4.6430499537e-04
 3  2  2     3.4892518508e-02
 3  2  3     4.3778852390e-01
 3  3  1     5.0905745505e-01
 3  3  2     4.7312341532e-01
 3  3  3     1.8604036116e-01

   13
0.0000000000e+00 0.0000000000e+00 0.0000000000e+00
1.6242776774e+00 2.8133296163e+00 -1.6948247590e-07
     1      1      4
 1  1  1     1.4627646566e-01
 1  1  2     1.3573090460e-01
 1  1  3    -1.0990147451e-01
 1  2  1     7.8985279327e-02
 1  2  2     1.5996754952e-02
 1  2  3    -7.4883624410e-02
 1  3  1    -9.1696447132e-02
 1  3  2    -7.5242447535e-02
 1  3  3    -1.2990496359e-01
 2  1  1     7.8985279196e-02
 2  1  2     1.5996754917e-02
 2  1  3    -7.4883624410e-02
 2  2  1     1.1428286652e-01
 2  2  2     1.4703139830e-02
 2  2  3    -2.3433237055e-02
 2  3  1    -7.5242449312e-02
 2  3  2    -4.8139256823e-03
 2  3  3    -7.5000621175e-02
 3  1  1    -9.1696447132e-02
 3  1  2    -7.5242447535e-02
 3  1  3    -1.2990496359e-01
 3  2  1    -7.5242449312e-02
 3  2  2    -4.8139256823e-03
 3  2  3    -7.5000621175e-02
 3  3  1     0.0000000000e+00
 3  3  2     0.0000000000e+00
 3  3  3     8.8667290200e-02

   14
0.0000000000e+00 0.0000000000e+00 0.0000000000e+00
-4.8728361106e+00 2.8133276548e+00 8.4078141190e-07
     1      1      4
 1  1  1    -1.4627673255e-01
 1  1  2     1.3573088865e-01
 1  1  3    -1.0990141662e-01
 1  2  1     7.8985316438e-02
 1  2  2    -1.5996635165e-02
 1  2  3     7.4883519237e-02
 1  3  1    -9.1696436899e-02
 1  3  2     7.5242352590e-02
 1  3  3     1.2990509946e-01
 2  1  1     7.8985316534e-02
 2  1  2    -1.5996635261e-02
 2  1  3     7.4883519237e-02
 2  2  1    -1.1428278754e-01
 2  2  2     1.4703051564e-02
 2  2  3    -2.3433111273e-02
 2  3  1     7.5242344835e-02
 2  3  2    -4.8138298425e-03
 2  3  3    -7.5000589424e-02
 3  1  1    -9.1696436899e-02
 3  1  2     7.5242352590e-02
 3  1  3     1.2990509946e-01
 3  2  1     7.5242344835e-02
 3  2  2    -4.8138298425e-03
 3  2  3    -7.5000589424e-02
 3  3  1     8.9166156892e-08
 3  3  2    -4.6799020046e-08
 3  3  3     8.8667209402e-02

   15
0.0000000000e+00 0.0000000000e+00 0.0000000000e+00
1.6242792166e+00 -2.8133286356e+00 -3.3564946800e-07
     1      1      1
 1  1  1    -6.1397599041e-02
 1  1  2     4.2021331993e-01
 1  1  3     8.2399865218e-02
 1  2  1     4.9669264559e-01
 1  2  2    -1.4291896714e+00
 1  2  3     1.6612867348e-02
 1  3  1     2.3628018062e-03
 1  3  2    -6.5818937167e-02
 1  3  3     2.4045929124e-01
 2  1  1     4.9669264559e-01
 2  1  2    -1.4291896714e+00
 2  1  3     1.6612867348e-02
 2  2  1    -1.6975122376e+00
 2  2  2     1.2405126325e+00
 2  2  3     3.1364580109e-03
 2  3  1    -5.5879109319e-02
 2  3  2    -7.8304579663e-02
 2  3  3    -4.5908986974e-01
 3  1  1     2.3628018062e-03
 3  1  2    -6.5818937167e-02
 3  1  3     2.4045929124e-01
 3  2  1    -5.5879109319e-02
 3  2  2    -7.8304579663e-02
 3  2  3    -4.5908986974e-01
 3  3  1     1.5520875060e-01
 3  3  2    -6.7741773142e-01
 3  3  3     1.8604034070e-01

   16
0.0000000000e+00 0.0000000000e+00 0.0000000000e+00
-1.6242776774e+00 -2.8133296163e+00 1.6948247590e-07
     1      1      1
 1  1  1     6.1396857196e-02
 1  1  2     4.2021184081e-01
 1  1  3     8.2399690018e-02
 1  2  1     4.9669098618e-01
 1  2  2     1.4291895179e+00
 1  2  3    -1.6613140150e-02
 1  3  1     2.3625727378e-03
 1  3  2     6.5818605259e-02
 1  3  3    -2.4045899900e-01
 2  1  1     4.9669098618e-01
 2  1  2     1.4291895179e+00
 2  1  3    -1.6613140150e-02
 2  2  1     1.6975121598e+00
 2  2  2     1.2405153834e+00
 2  2  3     3.1359100418e-03
 2  3  1     5.5878832749e-02
 2  3  2    -7.8304950641e-02
 2  3  3    -4.5909002715e-01
 3  1  1     2.3625727378e-03
 3  1  2     6.5818605259e-02
 3  1  3    -2.4045899900e-01
 3  2  1     5.5878832749e-02
 3  2  2    -7.8304950641e-02
 3  2  3    -4.5909002715e-01
 3  3  1    -1.5520831401e-01
 3  3  2    -6.7741786608e-01
 3  3  3     1.8604053853e-01

   17
0.0000000000e+00 0.0000000000e+00 0.0000000000e+00
-1.6242776774e+00 -2.8133296163e+00 1.6948247590e-07
     1      1      4
 1  1  1     6.5464279219e-09
 1  1  2    -6.2213024517e-02
 1  1  3     1.9800869499e-02
 1  2  1     5.1278173006e-02
 1  2  2     3.7483225878e-08
 1  2  3     6.6967502377e-08
 1  3  1     3.8627387630e-02
 1  3  2     5.8304486610e-08
 1  3  3    -3.4053758037e-08
 2  1  1     5.1278173041e-02
 2  1  2     3.7614556472e-08
 2  1  3     6.6967501689e-08
 2  2  1     6.8279805966e-08
 2  2  2    -2.3865441467e-01
 2  2  3    -1.5313516387e-01
 2  3  1     6.7837490517e-08
 2  3  2    -1.3513737555e-01
 2  3  3     1.5000120059e-01
 3  1  1     3.8627387630e-02
 3  1  2     5.8304485876e-08
 3  1  3    -3.4053756992e-08
 3  2  1     6.7837492620e-08
 3  2  2    -1.3513737555e-01
 3  2  3     1.5000120059e-01
 3  3  1     4.0538460043e-09
 3  3  2     3.8425621725e-08
 3  3  3     8.8667263091e-02

   18
0.0000000000e+00 0.0000000000e+00 0.0000000000e+00
9.5725981790e-07 3.5156896000e-09 5.2828852875e+00
     1      1      2
 1  1  1     1.0207462438e+00
 1  1  2    -4.2844502838e-01
 1  1  3     5.9841360842e-01
 1  2  1    -7.6260052403e-01
 1  2  2     5.3317187817e-01
 1  2  3    -2.8996816078e-01
 1  3  1     8.6050330428e-01
 1  3  2    -6.9261492079e-01
 1  3  3    -6.4290061189e-01
 2  1  1    -7.6260052580e-01
 2  1  2     5.3317187731e-01
 2  1  3    -2.8996815846e-01
 2  2  1    -4.5602129716e-02
 2  2  2    -1.3455312960e-01
 2  2  3     2.6358581162e-01
 2  3  1    -6.9261487495e-01
 2  3  2     6.0738352133e-02
 2  3  3     3.7117807820e-01
 3  1  1     8.6050330370e-01
 3  1  2    -6.9261492079e-01
 3  1  3    -6.4290061189e-01
 3  2  1    -6.9261487495e-01
 3  2  2     6.0738352133e-02
 3  2  3     3.7117807820e-01
 3  3  1    -5.3919329961e-01
 3  3  2     3.1130277863e-01
 3  3  3    -3.8811909370e-01

   19
0.0000000000e+00 0.0000000000e+00 0.0000000000e+00
9.5725981790e-07 3.5156896000e-09 5.2828852875e+00
     1      1      3
 1  1  1     8.1242053274e-07
 1  1  2    -1.4948276899e-01
 1  1  3     1.2688378200e+00
 1  2  1    -1.4948276899e-01
 1  2  2     9.8760112678e-08
 1  2  3     5.9207151450e-08
 1  3  1     1.2688377701e+00
 1  3  2     5.9207150035e-08
 1  3  3     0.0000000000e+00
 2  1  1    -1.4948276899e-01
 2  1  2     9.8760027996e-08
 2  1  3     5.9207168627e-08
 2  2  1     9.8760091631e-08
 2  2  2     1.4948238237e-01
 2  2  3     1.2688345186e+00
 2  3  1     5.9207153363e-08
 2  3  2     1.2688344686e+00
 2  3  3     7.6391764400e-08
 3  1  1     1.2688377701e+00
 3  1  2     5.9207150035e-08
 3  1  3     0.0000000000e+00
 3  2  1     5.9207150035e-08
 3  2  2     1.2688344686e+00
 3  2  3     7.6391764400e-08
 3  3  1     0.0000000000e+00
 3  3  2     7.6391763611e-08
 3  3  3     2.1776688337e+00

   20
0.0000000000e+00 0.0000000000e+00 0.0000000000e+00
3.2485578513e+00 9.8427954050e-07 5.2828847824e+00
     1      1      3
 1  1  1     2.3678996791e-01
 1  1  2    -4.4679926508e-02
 1  1  3     8.0501030066e-02
 1  2  1    -5.3216943522e-02
 1  2  2    -1.7711025260e-01
 1  2  3    -7.5056935751e-02
 1  3  1     2.2994425072e-01
 1  3  2    -8.2441148915e-02
 1  3  3     9.3826994246e-02
 2  1  1    -5.3216943522e-02
 2  1  2    -1.7711025260e-01
 2  1  3    -7.5056935751e-02
 2  2  1    -1.9350635596e-01
 2  2  2    -2.8036084653e-02
 2  2  3    -4.8287244007e-02
 2  3  1     4.6505315438e-02
 2  3  2    -2.4094969347e-02
 2  3  3     4.6913991724e-02
 3  1  1     2.2994425072e-01
 3  1  2    -8.2441148915e-02
 3  1  3     9.3826994246e-02
 3  2  1     4.6505315438e-02
 3  2  2    -2.4094969347e-02
 3  2  3     4.6913991724e-02
 3  3  1     2.1112453669e-01
 3  3  2    -7.2137445798e-02
 3  3  3     6.4902140966e-02

   21
0.0000000000e+00 0.0000000000e+00 0.0000000000e+00
-3.2485559367e+00 -9.7724816130e-07 5.2828857927e+00
     1      1      2
 1  1  1    -1.0207443373e+00
 1  1  2    -4.2844455826e-01
 1  1  3     5.9841407534e-01
 1  2  1    -7.6260051704e-01
 1  2  2    -5.3317250240e-01
 1  2  3     2.8996874679e-01
 1  3  1     8.6050329234e-01
 1  3  2     6.9261565307e-01
 1  3  3     6.4289981444e-01
 2  1  1    -7.6260051689e-01
 2  1  2    -5.3317250043e-01
 2  1  3     2.8996874911e-01
 2  2  1     4.5601378034e-02
 2  2  2    -1.3455374204e-01
 2  2  3     2.6358614681e-01
 2  3  1     6.9261573295e-01
 2  3  2     6.0739354234e-02
 2  3  3     3.7117816082e-01
 3  1  1     8.6050329219e-01
 3  1  2     6.9261565282e-01
 3  1  3     6.4289981444e-01
 3  2  1     6.9261573270e-01
 3  2  2     6.0739353799e-02
 3  2  3     3.7117816082e-01
 3  3  1     5.3919245342e-01
 3  3  2     3.1130267342e-01
 3  3  3    -3.8811966126e-01

   22
0.0000000000e+00 0.0000000000e+00 0.0000000000e+00
-3.2485559367e+00 -9.7724816130e-07 5.2828857927e+00
     1      1      3
 1  1  1    -2.3678968939e-01
 1  1  2    -4.4680203537e-02
 1  1  3     8.0500953567e-02
 1  2  1    -5.3217278927e-02
 1  2  2     1.7711020009e-01
 1  2  3     7.5057044329e-02
 1  3  1     2.2994419418e-01
 1  3  2     8.2441288694e-02
 1  3  3    -9.3827092939e-02
 2  1  1    -5.3217278927e-02
 2  1  2     1.7711020009e-01
 2  1  3     7.5057044329e-02
 2  2  1     1.9350628953e-01
 2  2  2    -2.8035753927e-02
 2  2  3    -4.8287213544e-02
 2  3  1    -4.6505129859e-02
 2  3  2    -2.4095002728e-02
 2  3  3     4.6913926190e-02
 3  1  1     2.2994419418e-01
 3  1  2     8.2441288694e-02
 3  1  3    -9.3827092939e-02
 3  2  1    -4.6505129859e-02
 3  2  2    -2.4095002728e-02
 3  2  3     4.6913926190e-02
 3  3  1    -2.1112461672e-01
 3  3  2    -7.2137624555e-02
 3  3  3     6.4902264982e-02

   23
0.0000000000e+00 0.0000000000e+00 0.0000000000e+00
-1.6242782594e+00 2.8133286391e+00 5.2828856232e+00
     1      1      2
 1  1  1    -5.2790045923e-08
 1  1  2    -5.0742944972e-01
 1  1  3     9.6173063314e-02
 1  2  1     1.6088200476e-01
 1  2  2    -3.2135469438e-07
 1  2  3    -3.4069794110e-07
 1  3  1    -3.3914313291e-01
 1  3  2    -4.8104716156e-07
 1  3  3     1.7053560120e-07
 2  1  1     1.6088200640e-01
 2  1  2    -3.2246112173e-07
 2  1  3    -3.3837855802e-07
 2  2  1    -2.0999654378e-07
 2  2  2     1.6334223521e+00
 2  2  3     7.6582549587e-01
 2  3  1    -6.0661719398e-07
 2  3  2     1.2603822327e+00
 2  3  3    -7.4235616080e-01
 3  1  1    -3.3914313306e-01
 3  1  2    -4.8079608498e-07
 3  1  3     1.7053560388e-07
 3  2  1    -6.0636610218e-07
 3  2  2     1.2603822323e+00
 3  2  3    -7.4235616080e-01
 3  3  1     2.0546517885e-07
 3  3  2    -6.2260537120e-01
 3  3  3    -3.8811947083e-01

   24
0.0000000000e+00 0.0000000000e+00 0.0000000000e+00
-1.6242782594e+00 2.8133286391e+00 5.2828856232e+00
     1      1      3
 1  1  1     2.2672653023e-01
 1  1  2    -2.1542912922e-02
 1  1  3    -8.1091665267e-02
 1  2  1    -3.0748851986e-03
 1  2  2    -1.8619826999e-01
 1  2  3    -1.8238475062e-02
 1  3  1     2.3854007781e-02
 1  3  2    -1.6549131780e-01
 1  3  3    -8.7542259761e-02
 2  1  1    -3.0748851986e-03
 2  1  2    -1.8619826999e-01
 2  1  3    -1.8238475062e-02
 2  2  1    -1.8539351782e-01
 2  2  2     9.5384764520e-02
 2  2  3     1.1330497188e-01
 2  3  1    -3.6544907950e-02
 2  3  2     1.8199466059e-01
 2  3  3     5.7799511672e-02
 3  1  1     2.3854007781e-02
 3  1  2    -1.6549131780e-01
 3  1  3    -8.7542259761e-02
 3  2  1    -3.6544907950e-02
 3  2  2     1.8199466059e-01
 3  2  3     5.7799511672e-02
 3  3  1    -4.3089326353e-02
 3  3  2     2.1890782205e-01
 3  3  3     6.4902246137e-02

   25
0.0000000000e+00 0.0000000000e+00 0.0000000000e+00
1.6242786346e+00 2.8133296198e+00 5.2828851180e+00
     1      1      3
 1  1  1    -2.2672652717e-01
 1  1  2    -2.1543133624e-02
 1  1  3    -8.1091551265e-02
 1  2  1    -3.0752055548e-03
 1  2  2     1.8619826889e-01
 1  2  3     1.8238386008e-02
 1  3  1     2.3854015091e-02
 1  3  2     1.6549131866e-01
 1  3  3     8.7542269458e-02
 2  1  1    -3.0752055548e-03
 2  1  2     1.8619826889e-01
 2  1  3     1.8238386008e-02
 2  2  1     1.8539350298e-01
 2  2  2     9.5385101322e-02
 2  2  3     1.1330493625e-01
 2  3  1     3.6544844682e-02
 2  3  2     1.8199472467e-01
 2  3  3     5.7799547494e-02
 3  1  1     2.3854015091e-02
 3  1  2     1.6549131866e-01
 3  1  3     8.7542269458e-02
 3  2  1     3.6544844682e-02
 3  2  2     1.8199472467e-01
 3  2  3     5.7799547494e-02
 3  3  1     4.3089215266e-02
 3  3  2     2.1890774514e-01
 3  3  3     6.4902178287e-02

   26
0.0000000000e+00 0.0000000000e+00 0.0000000000e+00
1.6242801739e+00 -2.8133286320e+00 5.2828849519e+00
     1      1      3
 1  1  1    -1.2487211172e-01
 1  1  2    -2.6085813870e-02
 1  1  3     4.8911145184e-02
 1  2  1    -3.6016771519e-02
 1  2  2     2.2507849574e-01
 1  2  3    -9.3295397238e-02
 1  3  1     5.4975643443e-02
 1  3  2    -5.4512904083e-02
 1  3  3     6.2848089475e-03
 2  1  1    -3.6016771519e-02
 2  1  2     2.2507849574e-01
 2  1  3    -9.3295397238e-02
 2  2  1     2.0948712462e-01
 2  2  2     2.4959666733e-02
 2  2  3    -1.6697478815e-02
 2  3  1    -1.8345933713e-01
 2  3  2     1.5087314767e-01
 2  3  3    -1.0471343293e-01
 3  1  1     5.4975643443e-02
 3  1  2    -5.4512904083e-02
 3  1  3     6.2848089475e-03
 3  2  1    -1.8345933713e-01
 3  2  2     1.5087314767e-01
 3  2  3    -1.0471343293e-01
 3  3  1     1.6803532929e-01
 3  3  2    -1.4677016237e-01
 3  3  3     6.4902163731e-02

   27
0.0000000000e+00 0.0000000000e+00 0.0000000000e+00
-1.6242767201e+00 -2.8133296128e+00 5.2828854570e+00
     1      1      3
 1  1  1     1.2487222297e-01
 1  1  2    -2.6085452666e-02
 1  1  3     4.8910999706e-02
 1  2  1    -3.6016358059e-02
 1  2  2    -2.2507849221e-01
 1  2  3     9.3295409160e-02
 1  3  1     5.4975411234e-02
 1  3  2     5.4512809654e-02
 1  3  3    -6.2847604427e-03
 2  1  1    -3.6016358059e-02
 2  1  2    -2.2507849221e-01
 2  1  3     9.3295409160e-02
 2  2  1    -2.0948718782e-01
 2  2  2     2.4959268430e-02
 2  2  3    -1.6697301000e-02
 2  3  1     1.8345926103e-01
 2  3  2     1.5087336136e-01
 2  3  3    -1.0471352280e-01
 3  1  1     5.4975411234e-02
 3  1  2     5.4512809654e-02
 3  1  3    -6.2847604427e-03
 3  2  1     1.8345926103e-01
 3  2  2     1.5087336136e-01
 3  2  3    -1.0471352280e-01
 3  3  1    -1.6803525966e-01
 3  3  2    -1.4677029774e-01
 3  3  3     6.4902219897e-02

   28
0.0000000000e+00 0.0000000000e+00 0.0000000000e+00
0.0000000000e+00 0.0000000000e+00 0.0000000000e+00
     1      2      1
 1  1  1     3.3786330333e-01
 1  1  2    -3.8473421146e-01
 1  1  3    -5.7641849685e-01
 1  2  1     5.2874353525e-01
 1  2  2     6.4001715146e-01
 1  2  3     3.3275960665e-01
 1  3  1    -7.8205702011e-01
 1  3  2     3.9974794149e-01
 1  3  3    -8.0385547113e-01
 2  1  1    -3.8473420995e-01
 2  1  2    -9.4217172223e-01
 2  1  3     3.3275968976e-01
 2  2  1     6.4001715193e-01
 2  2  2    -1.7984480157e-01
 2  2  3    -1.9217903900e-01
 2  3  1     3.9974794545e-01
 2  3  2    -3.2046550051e-01
 2  3  3     4.6410525664e-01
 3  1  1    -5.7641849784e-01
 3  1  2     3.3275968976e-01
 3  1  3    -9.2054011667e-01
 3  2  1     3.3275960665e-01
 3  2  2    -1.9217903900e-01
 3  2  3     5.3147302901e-01
 3  3  1    -8.0385547113e-01
 3  3  2     4.6410525664e-01
 3  3  3    -6.9270588542e-05

   29
0.0000000000e+00 0.0000000000e+00 0.0000000000e+00
0.0000000000e+00 0.0000000000e+00 0.0000000000e+00
     1      2      2
 1  1  1    -1.0207454033e+00
 1  1  2     7.6260017086e-01
 1  1  3     8.6050409457e-01
 1  2  1     7.6260016908e-01
 1  2  2     4.5602223396e-02
 1  2  3    -6.9261524322e-01
 1  3  1     8.6050409515e-01
 1  3  2    -6.9261524322e-01
 1  3  3     5.3919254192e-01
 2  1  1     4.2844452717e-01
 2  1  2    -5.3317185661e-01
 2  1  3    -6.9261519748e-01
 2  2  1    -5.3317185747e-01
 2  2  2     1.3455313011e-01
 2  2  3     6.0738524982e-02
 2  3  1    -6.9261519748e-01
 2  3  2     6.0738524982e-02
 2  3  3    -3.1130234118e-01
 3  1  1     5.9841441714e-01
 3  1  2    -2.8996856077e-01
 3  1  3     6.4289995949e-01
 3  2  1    -2.8996856309e-01
 3  2  2     2.6358580440e-01
 3  2  3    -3.7117775399e-01
 3  3  1     6.4289995949e-01
 3  3  2    -3.7117775399e-01
 3  3  3    -3.8811972349e-01

   30
0.0000000000e+00 0.0000000000e+00 0.0000000000e+00
0.0000000000e+00 0.0000000000e+00 0.0000000000e+00
     1      2      3
 1  1  1     5.2151674724e-01
 1  1  2    -3.7017867653e-01
 1  1  3     3.1237621733e-01
 1  2  1    -6.6428458028e-01
 1  2  2     2.5639622604e-02
 1  2  3    -3.2436193148e-01
 1  3  1     4.8136718316e-01
 1  3  2    -4.2575128950e-01
 1  3  3     7.4536338330e-02
 2  1  1    -3.8888806019e-01
 2  1  2     5.0264017870e-01
 2  1  3    -3.2436196281e-01
 2  2  1    -6.7658957110e-03
 2  2  2     7.2987540000e-02
 2  2  3    -6.2165549490e-02
 2  3  1    -4.2575130534e-01
 2  3  2    -1.0249386147e-02
 2  3  3    -4.3033467024e-02
 3  1  1     1.1192010916e-01
 3  1  2    -6.8439531783e-02
 3  1  3     5.1119265309e-02
 3  2  1    -6.8439516439e-02
 3  2  2     3.2892652236e-02
 3  2  3    -2.9513655479e-02
 3  3  1    -9.4623581618e-02
 3  3  2     5.4630849770e-02
 3  3  3    -7.5152899010e-02

   31
0.0000000000e+00 0.0000000000e+00 0.0000000000e+00
0.0000000000e+00 0.0000000000e+00 0.0000000000e+00
     1      2      4
 1  1  1    -1.0641317324e-01
 1  1  2    -2.2513133607e-01
 1  1  3    -8.8980296680e-01
 1  2  1    -6.0387549232e-01
 1  2  2    -1.0385480867e+00
 1  2  3     7.7806936606e-01
 1  3  1    -6.7490747862e-01
 1  3  2     6.5976227769e-01
 1  3  3     2.9543896293e-01
 2  1  1     4.5418749027e-01
 2  1  2     7.9406937229e-01
 2  1  3     7.7806924420e-01
 2  2  1     1.3806562917e-01
 2  2  2     2.0685601893e-01
 2  2  3     8.6363430617e-03
 2  3  1     6.5976217607e-01
 2  3  2     8.6921992563e-02
 2  3  3    -1.7057146751e-01
 3  1  1    -4.1031872689e-02
 3  1  2     2.9452349652e-02
 3  1  3     1.9115515668e-01
 3  2  1     2.9452369412e-02
 3  2  2    -7.0230849514e-03
 3  2  3    -1.1036327585e-01
 3  3  1     3.4702215765e-03
 3  3  2    -2.0035437761e-03
 3  3  3     1.3670490563e-01

   32
0.0000000000e+00 0.0000000000e+00 0.0000000000e+00
3.2485568940e+00 9.8076385090e-07 -5.0513194390e-07
     1      2      1
 1  1  1     6.1609144538e-08
 1  1  2    -6.1562589899e-02
 1  1  3     1.3289889661e-01
 1  2  1     7.5039089113e-02
 1  2  2     4.9096257038e-02
 1  2  3    -4.5749424721e-02
 1  3  1     1.6106010179e-03
 1  3  2     1.9270072725e-01
 1  3  3    -1.3896258333e-01
 2  1  1    -6.1562630767e-02
 2  1  2     1.2482327398e-08
 2  1  3     5.8096129951e-03
 2  2  1    -4.9096161621e-02
 2  2  2    -1.6821902156e-01
 2  2  3    -1.3044747981e-02
 2  3  1    -1.9270072982e-01
 2  3  2     2.0066188947e-02
 2  3  3    -3.2286381623e-02
 3  1  1     1.3289892511e-01
 3  1  2    -5.8095181668e-03
 3  1  3    -2.2215165018e-08
 3  2  1     4.5749500152e-02
 3  2  2    -1.3044739133e-02