  0.00000000000000000E+00  0.00000000000000000E+00  0.00000000000000000E+00
  0.00000000000000000E+00  0.00000000000000000E+00  0.00000000000000000E+00
  0.00000000000000000E+00  0.00000000000000000E+00  0.00000000000000000E+00
  0.12936251967493206E+03  0.11599216117151343E-01  0.29600205340946734E+00
  0.12936252009783334E+03  0.11599213502658370E-01  0.29600196009355889E+00
  0.12936252065734155E+03  0.11599210043598417E-01  0.29600183663351615E+00
  0.48725940690369365E+01  0.90029710256917298E-03  0.12846581458835949E-03
  0.48725976808686244E+01  0.90029812502821598E-03  0.12846595949420777E-03
  0.87564588323289581E+01  0.26014570191142399E-02  0.36436645424814434E-03
  0.12912070206821713E+03  0.14599054312911679E-01  0.35710701726429267E+00
  0.12912070287684500E+03  0.14599054448037094E-01  0.35710714957015771E+00
  0.12952658871962223E+03  0.11167094127476527E-01  0.26341726924978731E+00
  0.95590664667012550E+01  0.32327992612199334E-02  0.45111520897616827E-03
  0.95590691457254700E+01  0.32328009839767001E-02  0.45111544342365324E-03
  0.17327564542567405E+02  0.11926450867425203E-01  0.15393011858932807E-02
  0.12842186696907740E+03  0.17447979901269586E-01  0.39468431073070165E+00
  0.12842186770564953E+03  0.17447971232117006E-01  0.39468411594281533E+00
  0.12993493468657039E+03  0.10505326660390732E-01  0.21330788673288872E+00
  0.13879363683460998E+02  0.72230964131835872E-02  0.97161268688647907E-03
  0.13879366427729975E+02  0.72231004903102998E-02  0.97161321491409257E-03
  0.25520948862055469E+02  0.50328052022501471E-01  0.55692120286486638E-02
  0.12734889333972367E+03  0.31637306692008562E-02  0.23725481264577124E-01
  0.12734889397663228E+03  0.31637303976371788E-02  0.23725478512540556E-01
  0.13037795127541199E+03  0.17464328230327279E-01  0.25822588013568709E+00
  0.17666684290456139E+02  0.12876320190002918E-01  0.16553761535298595E-02
  0.17666687147701687E+02  0.12876327272574397E-01  0.16553770114984101E-02
  0.33133999834123003E+02  0.10301528448105675E+00  0.88370239104219178E-02
  0.12604315008357257E+03  0.45610624451135114E-02  0.36144631041762632E-01
  0.12604315061725249E+03  0.45610614916864866E-02  0.36144622609984745E-01
  0.13062162606229640E+03  0.13848429619830566E-01  0.21420291748638978E+00
  0.20780732160935589E+02  0.20169275978662939E-01  0.24695398848628542E-02
  0.20780735012023282E+02  0.20169287900378658E-01  0.24695412396199602E-02
  0.39958303082896826E+02  0.74718444989561345E-01  0.43532018488075435E-02
  0.12469066628494046E+03  0.63509221581376221E-02  0.53571653230247401E-01
  0.12469066673396075E+03  0.63509211182097456E-02  0.53571643307216803E-01
  0.13051318549051891E+03  0.21019339529850595E-01  0.28912630206344631E+00
  0.23133244876290330E+02  0.29344001884477954E-01  0.34364604683407704E-02
  0.23133247603589993E+02  0.29344020938274127E-01  0.34364625149331625E-02
  0.45793852786177794E+02  0.65334213399559860E-01  0.26861668613951182E-02
  0.12348210560950308E+03  0.83319103096480551E-02  0.74900014026096445E-01
  0.12348210600441995E+03  0.83319090252876281E-02  0.74900000752140802E-01
  0.13004199183601739E+03  0.11554680741185144E-01  0.21966174355822449E+00
  0.24721768122567347E+02  0.38152286644776323E-01  0.43127179855654615E-02
  0.24721770661560310E+02  0.38152311224241023E-01  0.43127204696674108E-02
  0.50470430733616467E+02  0.10575931964197431E+00  0.23438547033399889E-02
  0.12255617113468585E+03  0.10337835699153307E-01  0.97845785246717762E-01
  0.12255617150411412E+03  0.10337834176123660E-01  0.97845768391028501E-01
  0.12933598366076623E+03  0.11739372255514245E-01  0.30086775150491807E+00
  0.25647782870368665E+02  0.53306200203964767E-01  0.58819171296239266E-02
  0.25647785219696964E+02  0.53306232883914791E-01  0.58819204354295263E-02
  0.53867397566180024E+02  0.78177959385000537E-01  0.84138271695932015E-03
  0.12195843297120412E+03  0.13349332849257520E-01  0.13124021315038956E+00
  0.12195843333337052E+03  0.13349332106783024E-01  0.13124020291534552E+00
  0.12860521474750621E+03  0.16641574314652588E-01  0.37707611133516722E+00
  0.26087599104757356E+02  0.68849780914419317E-01  0.75175837216333412E-02
  0.26087601316843923E+02  0.68849895450418461E-01  0.75175958617818926E-02
  0.55919875147746076E+02  0.38128411444008248E-01  0.21544282783205428E-03
  0.12164847937674529E+03  0.17089810375525122E-01  0.16981980841873801E+00
  0.12164847973932621E+03  0.17089803238817303E-01  0.16981973622051258E+00
  0.12806407246492856E+03  0.10169301393677766E-01  0.25654040641761872E+00
  0.26210803778296505E+02  0.70763638587700156E-01  0.77037811403494368E-02
  0.26210805940612889E+02  0.70763593982187817E-01  0.77037758640325655E-02
  0.56605252252203535E+02  0.23223679278967877E-01  0.10547040940698010E-03
  0.12155619351323027E+03  0.18230843547958182E-01  0.18211088466837222E+00
  0.12155619387679661E+03  0.18230840022417111E-01  0.18211084488714202E+00
  0.12786550832528658E+03  0.72206022493400621E-02  0.21941252446017226E+00
  0.64323667532052644E+01  0.12477025097075488E-02  0.17690657415686962E-03
  0.64323696569980404E+01  0.12477035111863825E-02  0.17690671352912812E-03
  0.91084261140721665E+01  0.28979754297988971E-02  0.40524733113431389E-03
  0.12902530433217612E+03  0.14233825456976023E-01  0.33772837282753659E+00
  0.12902530499073958E+03  0.14233825621629842E-01  0.33772839903926039E+00
  0.12960171955390356E+03  0.11169088132328980E-01  0.25820388745298584E+00
  0.96481363414196917E+01  0.32890719070023246E-02  0.45875879432785607E-03
  0.10182965800152274E+02  0.35599425826283596E-02  0.49499639937632546E-03
  0.15811530418924134E+02  0.86065951444583063E-02  0.11356558829868151E-02
  0.12845518440429524E+03  0.17315649813501820E-01  0.39161567721133056E+00
  0.12848081956342702E+03  0.17461571230534149E-01  0.39474541938541546E+00
  0.12992402829005241E+03  0.10466638535602740E-01  0.21370685676230716E+00
  0.13450227347709802E+02  0.65041175490245448E-02  0.87779610441775615E-03
  0.14182317383139791E+02  0.76273125556134882E-02  0.10235434199464789E-02
  0.23538656099794071E+02  0.31605469447481091E-01  0.36724671961328361E-02
  0.12747274611856648E+03  0.31356596665708387E-02  0.23382538013303974E-01
  0.12756309168405878E+03  0.31304307987659527E-02  0.23256859415007384E-01
  0.13031624835613559E+03  0.15591025809622619E-01  0.24500156956590416E+00
  0.17232691318677340E+02  0.11632882577438906E-01  0.15031597056017105E-02
  0.17850238975775909E+02  0.13296602605694680E-01  0.17059130748622723E-02
  0.31029401865213249E+02  0.91007667004362205E-01  0.85323429566362321E-02
  0.12620424466460994E+03  0.43092787479261140E-02  0.33890259789640033E-01
  0.12637567342395812E+03  0.41695891012137427E-02  0.32518343632911069E-01
  0.13056812070956943E+03  0.18098675993854656E-01  0.25864516949809790E+00
  0.20588798860489625E+02  0.19299080770955292E-01  0.23699832983413507E-02
  0.20934276904682385E+02  0.20770484542673558E-01  0.25373458287302349E-02
  0.37917859404020412E+02  0.84944301991118729E-01  0.56302007164108136E-02
  0.12483166423130947E+03  0.60191292951483448E-02  0.50420219325187469E-01
  0.12507237175071538E+03  0.55914332102265478E-02  0.46242912050726205E-01
  0.13051313962208047E+03  0.21020405371505995E-01  0.28913754450566725E+00
  0.23301902240566609E+02  0.30420696555448400E-01  0.35508621874879381E-02
  0.23304981012318027E+02  0.30438267285775335E-01  0.35527045039775579E-02
  0.43952729716247035E+02  0.63390827199558714E-01  0.30163030027544452E-02
  0.12355741904050707E+03  0.80858295359269011E-02  0.72364175135186434E-01
  0.12382657124055845E+03  0.73958596809550765E-02  0.65113948823014856E-01
  0.13010820413953775E+03  0.12628528885007132E-01  0.22899976237634756E+00
  0.24939590510977155E+02  0.40155268860343027E-01  0.45122188089133652E-02
  0.25273630642347015E+02  0.44584925468563921E-01  0.49644769227627826E-02
  0.48931657617251375E+02  0.69951455644578844E-01  0.19993981134515657E-02
  0.12254615057434398E+03  0.10379418632373853E-01  0.98306594682502177E-01
  0.12278489033330388E+03  0.96562674399849873E-02  0.90129385975812812E-01
  0.12944894241545381E+03  0.11027067309422619E-01  0.27178483023851752E+00
  0.25926136054961631E+02  0.56108631423640851E-01  0.61501995099370009E-02
  0.26523416575878624E+02  0.71240927079677635E-01  0.76926979901521895E-02
  0.52703433064221883E+02  0.10955761771089711E+00  0.15187266491795634E-02
  0.12187266749430114E+03  0.13479314693286710E-01  0.13332446374163384E+00
  0.12202501363722517E+03  0.13118868762567596E-01  0.12851466070822459E+00
  0.12872443983349689E+03  0.14956097550952991E-01  0.34638257669078210E+00
  0.26432116920811566E+02  0.68993362910457545E-01  0.74667436340916616E-02
  0.27179229361572890E+02  0.73954264113189255E-01  0.78424240170078766E-02
  0.55174724522850227E+02  0.52984603722469839E-01  0.39068196319026651E-03
  0.12151357238993964E+03  0.18669641668626030E-01  0.18702107121863754E+00
  0.12154939301909972E+03  0.18297368695848217E-01  0.18286058129139324E+00
  0.12813901444222307E+03  0.11814716399779089E-01  0.29181742255268045E+00
  0.26623951342775509E+02  0.72348830036843101E-01  0.77928976412105075E-02
  0.27421200375523625E+02  0.77405733825567508E-01  0.81582758519032628E-02
  0.56302854718260420E+02  0.29841831449510758E-01  0.14428012259723488E-03
  0.12132270216607796E+03  0.18715139932876559E-01  0.19122619129144761E+00
  0.12139409682290908E+03  0.19247211687534967E-01  0.19476854587369533E+00
  0.12784269866766341E+03  0.66255871930053284E-02  0.19863171790593562E+00
  0.26573953050374023E+02  0.72005820656098535E-01  0.77656548391726136E-02
  0.27388265451290660E+02  0.77070313412467867E-01  0.81294798237400226E-02
  0.56075290484273047E+02  0.34766544517134554E-01  0.18351277648734717E-03
  0.12132095938394311E+03  0.18700399110329287E-01  0.19112195000872537E+00
  0.12145900378573447E+03  0.19185345546980228E-01  0.19289514243721059E+00
  0.12790210223294611E+03  0.77438929767232566E-02  0.23014162710523708E+00
  0.26216823765754551E+02  0.70621911717596450E-01  0.76871723763951806E-02
  0.27099503860114311E+02  0.72716637753626717E-01  0.77279281564229469E-02
  0.54493191731500090E+02  0.59736822866663500E-01  0.56447134464279822E-03
  0.12155740544440809E+03  0.18219108099439184E-01  0.18197843847813136E+00
  0.12171731308339477E+03  0.15374413293326773E-01  0.15287571339293937E+00
  0.12830193424040306E+03  0.18173162303469510E-01  0.41222550568671074E+00
  0.25387416399163165E+02  0.46858977147921026E-01  0.52023251405683779E-02
  0.26443419254386637E+02  0.69313607068665115E-01  0.74993175093334774E-02
  0.51575592110909533E+02  0.12727977023975737E+00  0.22393746972619779E-02
  0.12207686962782100E+03  0.12870483458244441E-01  0.12576131686372857E+00
  0.12223022415022722E+03  0.12104142379588062E-01  0.11719063132143709E+00
  0.12894529179300795E+03  0.14545942781452284E-01  0.34533102412714400E+00
  0.23912034856993529E+02  0.32880989393688255E-01  0.37927323744878622E-02
  0.25242905901350607E+02  0.44050370716525920E-01  0.49089507703717781E-02
  0.47380419560311097E+02  0.59277058894550302E-01  0.22752869678774727E-02
  0.12291798671317015E+03  0.95049269099128537E-02  0.88064960751777277E-01
  0.12305209615240760E+03  0.93692143690059671E-02  0.86203529973322673E-01
  0.12965977699057322E+03  0.11028288959262344E-01  0.25131076323700013E+00
  0.21692846677292543E+02  0.22548668888158215E-01  0.27224343017814940E-02
  0.23349395100727584E+02  0.30690057380337536E-01  0.35790334594772441E-02
  0.42022955252212832E+02  0.60388774271820420E-01  0.32710605137675547E-02
  0.12405873327284938E+03  0.71696347157582810E-02  0.62285901342280459E-01
  0.12416753540438378E+03  0.71097921064363625E-02  0.61426459785130588E-01
  0.13024029871365894E+03  0.13780181615310198E-01  0.23423317516267469E+00
  0.18743386778450535E+02  0.14326018504579673E-01  0.18183992162545933E-02
  0.20707728695412094E+02  0.19851886877190451E-01  0.24333799149955874E-02
  0.35679440841281888E+02  0.12280826725832250E+00  0.91238947826056387E-02
  0.12538764823110493E+03  0.54504260900005621E-02  0.44368203111516645E-01
  0.12546857252781724E+03  0.54209334511954666E-02  0.43975498695115321E-01
  0.13052445677449089E+03  0.20678604032051739E-01  0.28555371810205099E+00
  0.15180678282142821E+02  0.83606541988771373E-02  0.11117443259482760E-02
  0.17369208409217510E+02  0.12051761389178356E-01  0.15546951576734700E-02
  0.28584461760581839E+02  0.77338399919575737E-01  0.78689603521354748E-02
  0.12672635251158222E+03  0.41177742671871720E-02  0.31649569348492640E-01
  0.12678231669727506E+03  0.40639547940543941E-02  0.31177847489316599E-01
  0.13046290711467739E+03  0.20721779533509715E-01  0.28676658714397968E+00
  0.11222541598047821E+02  0.40003490735800278E-02  0.55163236055443324E-03
  0.13466908156358635E+02  0.65341335809856902E-02  0.88173342700280117E-03
  0.21062657869644816E+02  0.21198173571571031E-01  0.25846760960448610E-02
  0.12788472983965866E+03  0.75656121121545298E-02  0.22846668001434312E+00
  0.12792325657078152E+03  0.78169439779776778E-02  0.22574579628573857E+00
  0.13014587868309002E+03  0.13088673204259016E-01  0.23247618782666271E+00
  0.73095026642239125E+01  0.16285700582976694E-02  0.22985353941609154E-03
  0.91305427697893773E+01  0.29159463982750158E-02  0.40772014557416680E-03
  0.13781034022640755E+02  0.70717655722051832E-02  0.95197253964855559E-03
  0.12871238878775898E+03  0.15050040061786809E-01  0.34757095885325517E+00
  0.12873703534987698E+03  0.14888975462970721E-01  0.34588698931408518E+00
  0.12976536033517564E+03  0.10705119418518800E-01  0.23458094896644277E+00
  0.12692023601433977E+02  0.51792895665525316E-02  0.70357555815590432E-03
  0.12692025587685098E+02  0.51792925222686843E-02  0.70357594630660253E-03
  0.18003708987633978E+02  0.13586539455294741E-01  0.17401379874022833E-02
  0.12800835718420902E+03  0.84118417834573456E-02  0.21596832017052472E+00
  0.12800835776584543E+03  0.84118548397650421E-02  0.21596856764454536E+00
  0.13019800828611665E+03  0.13423150876201832E-01  0.23353354540610763E+00
  0.15734503145340021E+02  0.85621754956649795E-02  0.11309912390936464E-02
  0.15959017852658654E+02  0.87189895756593985E-02  0.11480418850832173E-02
  0.23596287515278398E+02  0.31845587641939961E-01  0.36962838182196941E-02
  0.12712532476663155E+03  0.34010437792476190E-02  0.25775345266568685E-01
  0.12718050003739873E+03  0.33129553145922102E-02  0.25045385165119973E-01
  0.13052832903344139E+03  0.20526499399285362E-01  0.28396560472660226E+00
  0.19046099918914706E+02  0.14453241389936795E-01  0.18262827417778230E-02
  0.19229840203110360E+02  0.14574710792189412E-01  0.18359387889239466E-02
  0.30093783155817167E+02  0.83893456981027514E-01  0.81210915173284704E-02
  0.12591661841163948E+03  0.47961362518271766E-02  0.38220304496124236E-01
  0.12612528386742419E+03  0.44216882001494656E-02  0.34906712743130633E-01
  0.13070153875989894E+03  0.98502696217949264E-02  0.17183826470831634E+00
  0.22102825026687391E+02  0.23224845781759932E-01  0.27823750686820233E-02
  0.22363230074124044E+02  0.24056294794238594E-01  0.28655856284174747E-02
  0.36453277338648803E+02  0.98491439893480706E-01  0.70366756101795649E-02
  0.12455587897946444E+03  0.66402130156595473E-02  0.56367904406979662E-01
  0.12494888903012628E+03  0.57732056380807514E-02  0.48064395189460832E-01
  0.13058026266925347E+03  0.17146566686340865E-01  0.24869755091015971E+00
  0.24372093995837808E+02  0.34762200698422799E-01  0.39667947504636817E-02
  0.25305466141283667E+02  0.45171650801581559E-01  0.50256145435586584E-02
  0.42252593554593041E+02  0.60942146945468151E-01  0.32367189239041307E-02
  0.12324996506514437E+03  0.90046525447103464E-02  0.82014343939357207E-01
  0.12376459277912851E+03  0.75102806808824193E-02  0.66373413383244942E-01
  0.13013751900557807E+03  0.13004555652193706E-01  0.23191889267572693E+00
  0.25974489738016469E+02  0.58948524355035822E-01  0.64533602433209094E-02
  0.27628630977998657E+02  0.77902135781921150E-01  0.81684809598246734E-02
  0.47223095798011677E+02  0.59061041125292438E-01  0.22939427858245012E-02
  0.12218201449625751E+03  0.12362897676606734E-01  0.12006735648571719E+00
  0.12267602359227051E+03  0.99052308525308195E-02  0.93041996951348571E-01
  0.12947181958726986E+03  0.11013743373695024E-01  0.26769417117840816E+00
  0.26972926768098777E+02  0.71315668717459410E-01  0.76064879217747757E-02
  0.29237068503408704E+02  0.82194797885975168E-01  0.81979153628365508E-02
  0.51164545009641635E+02  0.12272252398850740E+00  0.23561098028020955E-02
  0.12145218416614551E+03  0.19227420429505641E-01  0.19342153139860549E+00
  0.12175652710007971E+03  0.14503583485607730E-01  0.14426579869118941E+00
  0.12876419595232113E+03  0.14836788517537272E-01  0.34698851980036166E+00
  0.27517516859306291E+02  0.77991653151597756E-01  0.82006203195935570E-02
  0.30176226901222915E+02  0.84864529179003362E-01  0.81907931004235705E-02
  0.53933980413208523E+02  0.76751201372781130E-01  0.81415353530014695E-03
  0.12105228346528534E+03  0.17622674549021115E-01  0.18574638193527890E+00
  0.12105548154263228E+03  0.17632659540499817E-01  0.18578049401638103E+00
  0.12819324024880248E+03  0.12561968905982953E-01  0.29934530586792779E+00
  0.27764203762172610E+02  0.76910219536412805E-01  0.80355045131529860E-02
  0.30593817566980388E+02  0.89916811192990428E-01  0.85558508791854226E-02
  0.55443599961307704E+02  0.46544670057416547E-01  0.32885251516273628E-03
  0.12060483313644649E+03  0.16854776617607106E-01  0.18712854747805957E+00
  0.12091727725397337E+03  0.17109363888303482E-01  0.18356206328856156E+00
  0.12786448988469725E+03  0.71980388261261453E-02  0.21871088690378895E+00
  0.27782382747093841E+02  0.76729625941864138E-01  0.80126020829885038E-02
  0.30659191868468149E+02  0.90435047665120408E-01  0.85865714634138311E-02
  0.55650402205736256E+02  0.42161217174815663E-01  0.27690029993225797E-03
  0.12045880890795803E+03  0.16681000123507032E-01  0.18755990447136245E+00
  0.12096426713555429E+03  0.17298371027556988E-01  0.18440045884549980E+00
  0.12780645164876175E+03  0.54822596489666753E-02  0.15038899258633956E+00
  0.27510592057162416E+02  0.77970008663468371E-01  0.81997530577525082E-02
  0.30469387831108698E+02  0.88643933230394725E-01  0.84696395616353764E-02
  0.54543220482211964E+02  0.58765577677809926E-01  0.54533630804786803E-03
  0.12064751314977727E+03  0.16812331948173123E-01  0.18600945122455262E+00
  0.12118143928438666E+03  0.17960270842548715E-01  0.18665290000926235E+00
  0.12801110099690135E+03  0.84751318397942293E-02  0.21719284733699512E+00
  0.26791569904420378E+02  0.71491708388757610E-01  0.76658482741242002E-02
  0.29992934129324574E+02  0.82885574760259081E-01  0.80530420228798558E-02
  0.52142759547637013E+02  0.14383913938506321E+00  0.22401699794657895E-02
  0.12118196389116444E+03  0.17961625883885519E-01  0.18665687796212929E+00
  0.12161678936380682E+03  0.17603411886606961E-01  0.17513739786139543E+00
  0.12844894710718805E+03  0.17304754869903002E-01  0.39139793060744715E+00
  0.25461397759953861E+02  0.48672325328419593E-01  0.53936880983795465E-02
  0.29085958136591600E+02  0.81871175023885356E-01  0.82039822063997084E-02
  0.48518964369809076E+02  0.53544070166763602E-01  0.19099040669241104E-02
  0.12204805166557016E+03  0.13010535553179672E-01  0.12731253670459455E+00
  0.12233284357017773E+03  0.11494584655581357E-01  0.11052880748928276E+00
  0.12904309280246369E+03  0.14261953827669835E-01  0.33927228601046117E+00
  0.23436045757734188E+02  0.31135189614814374E-01  0.36249187782216759E-02
  0.27565844337370297E+02  0.78049387048012703E-01  0.81968681229964650E-02
  0.43813791192254165E+02  0.63798576596675483E-01  0.30576000660405014E-02
  0.12319342036908384E+03  0.91324077803413214E-02  0.83424119095241916E-01
  0.12334097625005450E+03  0.87651151289618000E-02  0.79436159645257381E-01
  0.12965587964382593E+03  0.11038262580397562E-01  0.25183258767108480E+00
  0.20754202603722842E+02  0.20055970438130167E-01  0.24566596003455011E-02
  0.25286296040871985E+02  0.44814272301015437E-01  0.49883555737398732E-02
  0.38261295303815174E+02  0.80227180296281078E-01  0.51926281267403000E-02
  0.12450834174773780E+03  0.67275878234642388E-02  0.57233701702445620E-01
  0.12456486506306331E+03  0.66229879957244216E-02  0.56198492702061169E-01
  0.13012957957245743E+03  0.12915532525575635E-01  0.23127044128914037E+00
  0.17580861045652870E+02  0.12655302728161958E-01  0.16285436990069806E-02
  0.22162068853301744E+02  0.23370784419373111E-01  0.27963665355108004E-02
  0.32220274683268798E+02  0.98240425105613399E-01  0.87410112315626214E-02
  0.12583235113072340E+03  0.49558534129035183E-02  0.39631894740488553E-01
  0.12585360889483628E+03  0.49164493609607524E-02  0.39282829664172091E-01
  0.13035792708370178E+03  0.16836494299319590E-01  0.25354600147646628E+00
  0.14221251033764403E+02  0.76725976844489452E-02  0.10292952981678721E-02
  0.18153740955592539E+02  0.13818971626509155E-01  0.17669055377535676E-02
  0.26242761431072083E+02  0.69644521052425093E-01  0.75755993455298952E-02
  0.12699816202301221E+03  0.36622806848460015E-02  0.27896089158353229E-01
  0.12702736469716888E+03  0.35974791774191603E-02  0.27372713991323770E-01
  0.13033456368005841E+03  0.16141486562929075E-01  0.24870335203615879E+00
  0.18572440689283912E+02  0.14233769316299242E-01  0.18107925704359475E-02
  0.18572442374339808E+02  0.14233770372201757E-01  0.18107926659054624E-02
  0.26476436005222279E+02  0.70194002854042065E-01  0.75884014291234181E-02
  0.12633566799812259E+03  0.41879763581406165E-02  0.32724830429616054E-01
  0.12633566846410892E+03  0.41879760989077149E-02  0.32724827664776197E-01
  0.13088160292718484E+03  0.66014365613856858E-02  0.13644505714177174E+00
  0.21388248142448674E+02  0.22029246264740468E-01  0.26728913584339745E-02
  0.21489528435410996E+02  0.22222031599807568E-01  0.26920269620477034E-02
  0.31207009179683897E+02  0.90151941917896397E-01  0.83961096010878016E-02
  0.12519880931561949E+03  0.54963379382066344E-02  0.45152485354320412E-01
  0.12527757369034303E+03  0.54724299663587474E-02  0.44777414992597159E-01
  0.13108464868902740E+03  0.53869549584295686E-02  0.11730655044921963E+00
  0.23969137704157085E+02  0.33038251638648812E-01  0.38063108954136701E-02
  0.24677703290694275E+02  0.37711588280793483E-01  0.42679696788811162E-02
  0.36398510540981611E+02  0.99270513913755992E-01  0.71158461741330009E-02
  0.12387594864047200E+03  0.73243246136491325E-02  0.64292246599185837E-01
  0.12415726294679274E+03  0.71154793111381778E-02  0.61506592373743722E-01
  0.13096075141500950E+03  0.59594431403919646E-02  0.12727111915880415E+00
  0.26062326602646230E+02  0.67178907398782448E-01  0.73391981116958651E-02
  0.27839924251610945E+02  0.76132015628962491E-01  0.79371219901909970E-02
  0.41390866109867190E+02  0.63950833165206264E-01  0.35192920490379233E-02
  0.12257063684412465E+03  0.10277525088983093E-01  0.97180289667810130E-01
  0.12305304868691732E+03  0.93680288030150455E-02  0.86188467613452113E-01
  0.13048453887375683E+03  0.21184889673626958E-01  0.29108960869282607E+00
  0.27571547991298022E+02  0.78042930116860088E-01  0.81950178007407087E-02
  0.30591403836380497E+02  0.89895850344204525E-01  0.85545344294087958E-02
  0.45865960247533707E+02  0.65021036030390542E-01  0.26660813831101229E-02
  0.12147601115224633E+03  0.19051968222684974E-01  0.19131842183271405E+00
  0.12199808301465178E+03  0.13231388411944033E-01  0.12979050329269767E+00
  0.12977501216966235E+03  0.10671881547907184E-01  0.23292766201700946E+00
  0.28536579505862530E+02  0.76754234139097849E-01  0.78213670265583606E-02
  0.32679136163363566E+02  0.10517083111275090E+00  0.91918994141256764E-02
  0.49606472657979630E+02  0.84261257708547685E-01  0.22135895870974568E-02
  0.12071246708506624E+03  0.16743501532229903E-01  0.18418320383921621E+00
  0.12100631507546666E+03  0.17461739027727730E-01  0.18511014124677772E+00
  0.12903655528982972E+03  0.14245971803354815E-01  0.33850723369525315E+00
  0.29089658288734611E+02  0.81885121173060266E-01  0.82044574635945118E-02
  0.34032227777979465E+02  0.12022883449981381E+00  0.98193939859368574E-02
  0.52427830755327030E+02  0.12535062565555746E+00  0.18483391268733016E-02
  0.12011791268733315E+03  0.15445758208301413E-01  0.18086206921147982E+00
  0.12029430637408929E+03  0.15972535843201619E-01  0.18297046657733429E+00
  0.12845059494014225E+03  0.17305275183155118E-01  0.39139675767282939E+00
  0.29373359884901024E+02  0.82107109717887303E-01  0.81535592726233626E-02
  0.34738824445961811E+02  0.14562236364633241E+00  0.11384805847565056E-01
  0.54176125691045911E+02  0.69413713482832831E-01  0.70552110106340208E-03
  0.11943214405047290E+03  0.14213978252678030E-01  0.17947572917196608E+00
  0.12015268646008487E+03  0.15513664097846601E-01  0.18088488040716055E+00
  0.12809175321085115E+03  0.11040794099627079E-01  0.27733055568601300E+00
  0.29449738964644521E+02  0.81957804672633833E-01  0.81183123856777249E-02
  0.34970653251277845E+02  0.16952299387514347E+00  0.13024875080134380E-01
  0.54742629937247429E+02  0.56694194596760748E-01  0.48194606897413101E-03
  0.11908000688435801E+03  0.13573553853942334E-01  0.17822614853820107E+00
  0.12020213781292361E+03  0.15637776170259351E-01  0.18121446662451463E+00
  0.12794243998831024E+03  0.78186199146359821E-02  0.21889976154858359E+00
  0.29257164982069845E+02  0.82200710330475046E-01  0.81932634896458734E-02
  0.34880857688581891E+02  0.15525813022952301E+00  0.12021570463398036E-01
  0.54073758494512354E+02  0.72853024355510845E-01  0.75301793926971108E-03
  0.11916351089510381E+03  0.13689075853135691E-01  0.17810725854074416E+00
  0.12040506546112847E+03  0.16473245840002256E-01  0.18626249482216556E+00
  0.12796706832106980E+03  0.78668715819147639E-02  0.21163444524928268E+00
  0.28644521624803396E+02  0.78077436460204513E-01  0.79292946395838233E-02
  0.34514831252903925E+02  0.12958556882500757E+00  0.10290113259432092E-01
  0.52180775044475169E+02  0.14260709955228487E+00  0.22115543026390719E-02
  0.11971539369496381E+03  0.14944862427068177E-01  0.18294804240496715E+00
  0.12079136214149086E+03  0.16751877153342462E-01  0.18272945878810679E+00
  0.12815572927963785E+03  0.11953899682212926E-01  0.29242544484764321E+00
  0.27458459106756372E+02  0.77702408463260444E-01  0.81820715520890975E-02
  0.33771657695662981E+02  0.11477698160364934E+00  0.95029152526163400E-02
  0.49160657444987635E+02  0.76870055891490402E-01  0.21736753260951044E-02
  0.12068776284017206E+03  0.16765635678653076E-01  0.18484974554765643E+00
  0.12142260449422247E+03  0.19312865439449056E-01  0.19480734470332711E+00
  0.12850901131289376E+03  0.17619766070715907E-01  0.39808101088243963E+00
  0.25630066065229148E+02  0.53030887344979183E-01  0.58538028117807147E-02
  0.32423419336080670E+02  0.10246992085405965E+00  0.90426632652200970E-02
  0.45230911353191324E+02  0.63338281069882221E-01  0.27113269973631851E-02
  0.12195863885223390E+03  0.13348909883182731E-01  0.13123438696540007E+00
  0.12232841744839774E+03  0.11521632890578030E-01  0.11082237696250073E+00
  0.12899721084770437E+03  0.14280798898371101E-01  0.33841691866808626E+00
  0.23220678844958222E+02  0.29930656834574357E-01  0.34991533963720247E-02
  0.30162408238899374E+02  0.84692157164086401E-01  0.81781676616171917E-02
  0.40772029474426020E+02  0.70817567204104717E-01  0.39507709778492670E-02
  0.12335402854874513E+03  0.87279971289851328E-02  0.79041976580707635E-01
  0.12346038254527527E+03  0.84020692524694584E-02  0.75626369646928246E-01
  0.12954083225896747E+03  0.11196720426022509E-01  0.26267712371232432E+00
  0.20426800655313553E+02  0.18495526990779516E-01  0.22772785797370424E-02
  0.26707662463956609E+02  0.72133654617950876E-01  0.77527767982344753E-02
  0.36305230527313974E+02  0.10112635288053765E+00  0.72886826859679416E-02
  0.12469039371575107E+03  0.63515533536565739E-02  0.53577676236817050E-01
  0.12469156505087331E+03  0.63486992103662888E-02  0.53550403464023399E-01
  0.13002944257111145E+03  0.11366922999364863E-01  0.21805824057129300E+00
  0.23819634020126113E+02  0.32620193449653757E-01  0.37697193722079163E-02
  0.23819635436957352E+02  0.32620197622702782E-01  0.37697197482745308E-02
  0.34314448995717150E+02  0.12339988128105184E+00  0.99227323084549578E-02
  0.12413112157513777E+03  0.71295985541857893E-02  0.61708030428226153E-01
  0.12413112190922952E+03  0.71295983754872515E-02  0.61708027860700759E-01
  0.13142386268425264E+03  0.34734017707349304E-02  0.96849739264447732E-01
  0.26113185633522022E+02  0.69850781741513809E-01  0.76224676729864339E-02
  0.26477868041757073E+02  0.70229731412628144E-01  0.75919983003478976E-02
  0.38259915422759200E+02  0.80239927096740146E-01  0.51940369306127257E-02
  0.12285880829398522E+03  0.95607628447553772E-02  0.88868802863990876E-01
  0.12293967462271546E+03  0.94851502052136910E-02  0.87779701477052510E-01
  0.13145833453733772E+03  0.33627100213002039E-02  0.93912455786722748E-01
  0.28006210036066783E+02  0.74543292647084661E-01  0.77317997230042330E-02
  0.29567801439896858E+02  0.81706963399187954E-01  0.80612152286784183E-02
  0.42183277804029316E+02  0.60756188696740758E-01  0.32464803860455505E-02
  0.12157505415342825E+03  0.18050193046472724E-01  0.18006905532801831E+00
  0.12182017930317257E+03  0.13726798307088162E-01  0.13623836367431699E+00
  0.13110094465551856E+03  0.52854092495043629E-02  0.11600641827043577E+00
  0.29388040004375835E+02  0.82081773242347236E-01  0.81471368867691643E-02
  0.32725390308432274E+02  0.10526277825200753E+00  0.91840034678916972E-02
  0.45721713537177557E+02  0.65500795095617514E-01  0.27018345166420878E-02
  0.12047513703394064E+03  0.16730280550349072E-01  0.18781651192001736E+00