 2102

    1
0.0000000000e+00 0.0000000000e+00 0.0000000000e+00
0.0000000000e+00 0.0000000000e+00 0.0000000000e+00
     1      1      1
 1  1  1    -1.6422193593e-07
 1  1  2    -2.9545004691e+01
 1  1  3    -2.0891473650e+01
 1  2  1    -2.9545004691e+01
 1  2  2     6.7713431685e-07
 1  2  3    -2.5875685244e-07
 1  3  1    -2.0891473650e+01
 1  3  2    -2.5875685248e-07
 1  3  3    -6.2239366272e-07
 2  1  1    -2.9545004691e+01
 2  1  2     6.7778004653e-07
 2  1  3    -2.5875685244e-07
 2  2  1     6.7713431686e-07
 2  2  2     2.9545006602e+01
 2  2  3    -2.0891473361e+01
 2  3  1    -2.5875685248e-07
 2  3  2    -2.0891473361e+01
 2  3  3    -1.1593019242e-06
 3  1  1    -2.0891473650e+01
 3  1  2    -2.5875685248e-07
 3  1  3    -6.2239366272e-07
 3  2  1    -2.5875685248e-07
 3  2  2    -2.0891473361e+01
 3  2  3    -1.1593019242e-06
 3  3  1    -6.2239366272e-07
 3  3  2    -1.1593019242e-06
 3  3  3     4.1782947011e+01

    2
0.0000000000e+00 0.0000000000e+00 0.0000000000e+00
3.4121462508e+00 0.0000000000e+00 0.0000000000e+00
     1      1      1
 1  1  1    -2.4831557558e+00
 1  1  2     6.6192186102e-01
 1  1  3     4.6804942149e-01
 1  2  1    -4.4026873228e-01
 1  2  2     5.5245893319e-01
 1  2  3     4.1480869167e-03
 1  3  1    -3.1131703715e-01
 1  3  2     4.1480904969e-03
 1  3  3     5.4952577904e-01
 2  1  1    -4.4026873228e-01
 2  1  2     5.5245893319e-01
 2  1  3     4.1480869167e-03
 2  2  1     7.9680526811e-01
 2  2  2     2.6469645576e-01
 2  2  3    -8.2138771014e-02
 2  3  1     2.3774065995e-01
 2  3  2     2.4887878614e-02
 2  3  3     1.1281293559e-01
 3  1  1    -3.1131703715e-01
 3  1  2     4.1480904969e-03
 3  1  3     5.4952577904e-01
 3  2  1     2.3774065995e-01
 3  2  2     2.4887878614e-02
 3  2  3     1.1281293559e-01
 3  3  1     6.2869723154e-01
 3  3  2    -3.8545598432e-02
 3  3  3     2.4205157607e-01

    3
0.0000000000e+00 0.0000000000e+00 0.0000000000e+00
-6.8242925016e+00 0.0000000000e+00 0.0000000000e+00
     1      1      2
 1  1  1     7.0305995521e-02
 1  1  2     5.1497120812e-02
 1  1  3     3.6413969898e-02
 1  2  1    -1.0321831171e-01
 1  2  2     4.3089707570e-02
 1  2  3     1.1596336964e-01
 1  3  1    -7.2986363678e-02
 1  3  2     1.1596336708e-01
 1  3  3    -3.8908774843e-02
 2  1  1    -1.0321831171e-01
 2  1  2     4.3089707570e-02
 2  1  3     1.1596336964e-01
 2  2  1    -1.6326392906e-01
 2  2  2     7.6399157342e-02
 2  2  3    -2.4002516493e-02
 2  3  1    -1.6731890442e-02
 2  3  2    -1.0059957200e-01
 2  3  3    -4.3548682936e-02
 3  1  1    -7.2986363678e-02
 3  1  2     1.1596336708e-01
 3  1  3    -3.8908774843e-02
 3  2  1    -1.6731890442e-02
 3  2  2    -1.0059957200e-01
 3  2  3    -4.3548682936e-02
 3  3  1    -1.5143269768e-01
 3  3  2     6.4775907931e-02
 3  3  3     1.2382836380e-01

    4
0.0000000000e+00 0.0000000000e+00 0.0000000000e+00
-3.4121462508e+00 0.0000000000e+00 0.0000000000e+00
     1      1      1
 1  1  1     2.4831557550e+00
 1  1  2     6.6192183390e-01
 1  1  3     4.6804945403e-01
 1  2  1    -4.4026875849e-01
 1  2  2    -5.5245892737e-01
 1  2  3    -4.1480923123e-03
 1  3  1    -3.1131700804e-01
 1  3  2    -4.1480887320e-03
 1  3  3    -5.4952578346e-01
 2  1  1    -4.4026875849e-01
 2  1  2    -5.5245892737e-01
 2  1  3    -4.1480923123e-03
 2  2  1    -7.9680525911e-01
 2  2  2     2.6469645576e-01
 2  2  3    -8.2138771014e-02
 2  3  1    -2.3774066269e-01
 2  3  2     2.4887878614e-02
 2  3  3     1.1281293559e-01
 3  1  1    -3.1131700804e-01
 3  1  2    -4.1480887320e-03
 3  1  3    -5.4952578346e-01
 3  2  1    -2.3774066269e-01
 3  2  2     2.4887878614e-02
 3  2  3     1.1281293559e-01
 3  3  1    -6.2869723970e-01
 3  3  2    -3.8545598432e-02
 3  3  3     2.4205157607e-01

    5
0.0000000000e+00 0.0000000000e+00 0.0000000000e+00
-3.4121462508e+00 0.0000000000e+00 0.0000000000e+00
     1      1      2
 1  1  1    -7.0305996095e-02
 1  1  2     5.1497125587e-02
 1  1  3     3.6413961835e-02
 1  2  1    -1.0321830578e-01
 1  2  2    -4.3089702680e-02
 1  2  3    -1.1596336894e-01
 1  3  1    -7.2986371807e-02
 1  3  2    -1.1596337150e-01
 1  3  3     3.8908770075e-02
 2  1  1    -1.0321830578e-01
 2  1  2    -4.3089702680e-02
 2  1  3    -1.1596336894e-01
 2  2  1     1.6326393167e-01
 2  2  2     7.6399157342e-02
 2  2  3    -2.4002516493e-02
 2  3  1     1.6731889248e-02
 2  3  2    -1.0059957200e-01
 2  3  3    -4.3548682936e-02
 3  1  1    -7.2986371807e-02
 3  1  2    -1.1596337150e-01
 3  1  3     3.8908770075e-02
 3  2  1     1.6731889248e-02
 3  2  2    -1.0059957200e-01
 3  2  3    -4.3548682936e-02
 3  3  1     1.5143269560e-01
 3  3  2     6.4775907931e-02
 3  3  3     1.2382836380e-01

    6
0.0000000000e+00 0.0000000000e+00 0.0000000000e+00
1.7060731620e+00 2.9550053142e+00 0.0000000000e+00
     1      1      1
 1  1  1     5.2734541239e-01
 1  1  2    -7.7150352464e-01
 1  1  3     5.9000644093e-02
 1  2  1    -4.3201834800e-01
 1  2  2    -1.6447439068e+00
 1  2  3     2.4031251886e-01
 1  3  1     4.5577559752e-02
 1  3  2     3.1687467317e-02
 1  3  3     3.7246176680e-01
 2  1  1    -4.3201834800e-01
 2  1  2    -1.6447439068e+00
 2  1  3     2.4031251886e-01
 2  2  1    -5.6804565938e-01
 2  2  2    -1.1522279874e+00
 2  2  3     3.2690999484e-01
 2  3  1    -2.0190510190e-01
 2  3  2    -3.3200673586e-01
 2  3  3     4.1949680544e-01
 3  1  1     4.5577559752e-02
 3  1  2     3.1687467317e-02
 3  1  3     3.7246176680e-01
 3  2  1    -2.0190510190e-01
 3  2  2    -3.3200673586e-01
 3  2  3     4.1949680544e-01
 3  3  1     2.8096715933e-01
 3  3  2     5.6374056272e-01
 3  3  3     2.4205157607e-01

    7
0.0000000000e+00 0.0000000000e+00 0.0000000000e+00
-1.7060730888e+00 2.9550053142e+00 0.0000000000e+00
     1      1      1
 1  1  1    -5.2734545737e-01
 1  1  2    -7.7150344126e-01
 1  1  3     5.9000654379e-02
 1  2  1    -4.3201829204e-01
 1  2  2     1.6447438882e+00
 1  2  3    -2.4031252326e-01
 1  3  1     4.5577583436e-02
 1  3  2    -3.1687492336e-02
 1  3  3    -3.7246176362e-01
 2  1  1    -4.3201829204e-01
 2  1  2     1.6447438882e+00
 2  1  3    -2.4031252326e-01
 2  2  1     5.6804562110e-01
 2  2  2    -1.1522279874e+00
 2  2  3     3.2690999484e-01
 2  3  1     2.0190508118e-01
 2  3  2    -3.3200673586e-01
 2  3  3     4.1949680544e-01
 3  1  1     4.5577583436e-02
 3  1  2    -3.1687492336e-02
 3  1  3    -3.7246176362e-01
 3  2  1     2.0190508118e-01
 3  2  2    -3.3200673586e-01
 3  2  3     4.1949680544e-01
 3  3  1    -2.8096715257e-01
 3  3  2     5.6374056272e-01
 3  3  3     2.4205157607e-01

    8
0.0000000000e+00 0.0000000000e+00 0.0000000000e+00
-3.4121463240e+00 -5.9100106284e+00 0.0000000000e+00
     1      1      2
 1  1  1    -4.0411233774e-03
 1  1  2    -2.2198028920e-01
 1  1  3     9.1528829299e-02
 1  2  1     3.4084927060e-02
 1  2  2     3.7512903524e-02
 1  2  3     8.4142790165e-02
 1  3  1    -5.0727780447e-02
 1  3  2    -2.9582891638e-02
 1  3  3    -5.7168651231e-02
 2  1  1     3.4084927060e-02
 2  1  2     3.7512903524e-02
 2  1  3     8.4142790165e-02
 2  2  1     6.8323573365e-02
 2  2  2     7.7528223220e-02
 2  2  3    -7.9117377131e-02
 2  3  1     1.0311236732e-01
 2  3  2    -1.2285815148e-01
 2  3  3    -1.1921648832e-02
 3  1  1    -5.0727780447e-02
 3  1  2    -2.9582891638e-02
 3  1  3    -5.7168651231e-02
 3  2  1     1.0311236732e-01
 3  2  2    -1.2285815148e-01
 3  2  3    -1.1921648832e-02
 3  3  1    -1.9618767005e-02
 3  3  2    -1.6353252047e-01
 3  3  3     1.2382836380e-01

    9
0.0000000000e+00 0.0000000000e+00 0.0000000000e+00
-6.8242925748e+00 -5.9100106284e+00 0.0000000000e+00
     1      1      2
 1  1  1     4.0411198630e-03
 1  1  2    -2.2198029282e-01
 1  1  3     9.1528821724e-02
 1  2  1     3.4084930017e-02
 1  2  2    -3.7512897943e-02
 1  2  3    -8.4142791770e-02
 1  3  1    -5.0727784556e-02
 1  3  2     2.9582893467e-02
 1  3  3     5.7168647247e-02
 2  1  1     3.4084930017e-02
 2  1  2    -3.7512897943e-02
 2  1  3    -8.4142791770e-02
 2  2  1    -6.8323569088e-02
 2  2  2     7.7528223220e-02
 2  2  3    -7.9117377131e-02
 2  3  1    -1.0311237001e-01
 2  3  2    -1.2285815148e-01
 2  3  3    -1.1921648832e-02
 3  1  1    -5.0727784556e-02
 3  1  2     2.9582893467e-02
 3  1  3     5.7168647247e-02
 3  2  1    -1.0311237001e-01
 3  2  2    -1.2285815148e-01
 3  2  3    -1.1921648832e-02
 3  3  1     1.9618759265e-02
 3  3  2    -1.6353252047e-01
 3  3  3     1.2382836380e-01

   10
0.0000000000e+00 0.0000000000e+00 0.0000000000e+00
-1.7060731620e+00 -2.9550053142e+00 0.0000000000e+00
     1      1      1
 1  1  1    -2.7815798574e-01
 1  1  2    -2.5290242350e-01
 1  1  3     5.1815931936e-02
 1  2  1     5.0980303289e-01
 1  2  2     1.0914563434e+00
 1  2  3     2.3616444351e-01
 1  3  1    -1.6390425865e-01
 1  3  2    -3.2284946433e-01
 1  3  3    -1.7706402623e-01
 2  1  1     5.0980303289e-01
 2  1  2     1.0914563434e+00
 2  1  3     2.3616444351e-01
 2  2  1     1.9238082314e+00
 2  2  2     1.2500156140e+00
 2  2  3     3.3409477598e-01
 2  3  1    -8.9256885591e-02
 2  3  2    -1.2252484918e-01
 2  3  3    -5.3230976118e-01
 3  1  1    -1.6390425865e-01
 3  1  2    -3.2284946433e-01
 3  1  3    -1.7706402623e-01
 3  2  1    -8.9256885591e-02
 3  2  2    -1.2252484918e-01
 3  2  3    -5.3230976118e-01
 3  3  1    -3.4773008978e-01
 3  3  2    -5.2519498443e-01
 3  3  3     2.4205157607e-01

   11
0.0000000000e+00 0.0000000000e+00 0.0000000000e+00
-1.7060731620e+00 -2.9550053142e+00 0.0000000000e+00
     1      1      2
 1  1  1     3.6195764432e-02
 1  1  2    -3.0208242924e-03
 1  1  3    -1.0932562168e-01
 1  2  1    -1.0437059797e-01
 1  2  2    -1.1611968638e-01
 1  2  3    -3.1820577644e-02
 1  3  1    -1.3666476259e-01
 1  3  2     5.3496629616e-02
 1  3  3    -1.8259877938e-02
 2  1  1    -1.0437059797e-01
 2  1  2    -1.1611968638e-01
 2  1  3    -3.1820577644e-02
 2  2  1     1.2104463381e-01
 2  2  2     1.9576618086e-02
 2  2  3     1.2173706330e-01
 2  3  1    -7.9198636163e-02
 2  3  2    -3.6921183738e-02
 2  3  3     5.5470321461e-02
 3  1  1    -1.3666476259e-01
 3  1  2     5.3496629616e-02
 3  1  3    -1.8259877938e-02
 3  2  1    -7.9198636163e-02
 3  2  2    -3.6921183738e-02
 3  2  3     5.5470321461e-02
 3  3  1     1.3181393288e-01
 3  3  2     9.8756602227e-02
 3  3  3     1.2382836380e-01

   12
0.0000000000e+00 0.0000000000e+00 0.0000000000e+00
1.7060730888e+00 -2.9550053142e+00 0.0000000000e+00
     1      1      1
 1  1  1     2.7815801295e-01
 1  1  2    -2.5290249682e-01
 1  1  3     5.1815909686e-02
 1  2  1     5.0980296258e-01
 1  2  2    -1.0914563088e+00
 1  2  3    -2.3616441938e-01
 1  3  1    -1.6390426408e-01
 1  3  2     3.2284947695e-01
 1  3  3     1.7706400584e-01
 2  1  1     5.0980296258e-01
 2  1  2    -1.0914563088e+00
 2  1  3    -2.3616441938e-01
 2  2  1    -1.9238082104e+00
 2  2  2     1.2500156140e+00
 2  2  3     3.3409477598e-01
 2  3  1     8.9256898415e-02
 2  3  2    -1.2252484918e-01
 2  3  3    -5.3230976118e-01
 3  1  1    -1.6390426408e-01
 3  1  2     3.2284947695e-01
 3  1  3     1.7706400584e-01
 3  2  1     8.9256898415e-02
 3  2  2    -1.2252484918e-01
 3  2  3    -5.3230976118e-01
 3  3  1     3.4773006956e-01
 3  3  2    -5.2519498443e-01
 3  3  3     2.4205157607e-01

   13
0.0000000000e+00 0.0000000000e+00 0.0000000000e+00
-8.5303656636e+00 -2.9550053142e+00 0.0000000000e+00
     1      1      2
 1  1  1    -3.6195758278e-02
 1  1  2    -3.0208153520e-03
 1  1  3    -1.0932562120e-01
 1  2  1    -1.0437060139e-01
 1  2  2     1.1611968796e-01
 1  2  3     3.1820579007e-02
 1  3  1    -1.3666475857e-01
 1  3  2    -5.3496633473e-02
 1  3  3     1.8259875623e-02
 2  1  1    -1.0437060139e-01
 2  1  2     1.1611968796e-01
 2  1  3     3.1820579007e-02
 2  2  1    -1.2104463695e-01
 2  2  2     1.9576618086e-02
 2  2  3     1.2173706330e-01
 2  3  1     7.9198633596e-02
 2  3  2    -3.6921183738e-02
 2  3  3     5.5470321461e-02
 3  1  1    -1.3666475857e-01
 3  1  2    -5.3496633473e-02
 3  1  3     1.8259875623e-02
 3  2  1     7.9198633596e-02
 3  2  2    -3.6921183738e-02
 3  2  3     5.5470321461e-02
 3  3  1    -1.3181393413e-01
 3  3  2     9.8756602227e-02
 3  3  3     1.2382836380e-01

   14
0.0000000000e+00 0.0000000000e+00 0.0000000000e+00
-5.1182194128e+00 -2.9550053142e+00 0.0000000000e+00
     1      1      2
 1  1  1    -7.0286827844e-08
 1  1  2     1.0290384925e+00
 1  1  3     2.4991708063e+00
 1  2  1     1.0290384955e+00
 1  2  2    -4.8393317482e-08
 1  2  3     3.0954140701e-08
 1  3  1     2.3931377664e+00
 1  3  2     2.9640840454e-08
 1  3  3     6.0099336189e-07
 2  1  1     1.0290384955e+00
 2  1  2    -4.8393317482e-08
 2  1  3     3.0954140701e-08
 2  2  1    -4.9972772603e-08
 2  2  2    -1.0290387498e+00
 2  2  3     2.4991707718e+00
 2  3  1     2.9640840454e-08
 2  3  2     2.3931377333e+00
 2  3  3     1.1194406412e-06
 3  1  1     2.3931377664e+00
 3  1  2     2.9640840454e-08
 3  1  3     6.0099336189e-07
 3  2  1     2.9640840454e-08
 3  2  2     2.3931377333e+00
 3  2  3     1.1194406412e-06
 3  3  1     6.0099336189e-07
 3  3  2     1.1194406412e-06
 3  3  3    -4.0346287724e+01

   15
0.0000000000e+00 0.0000000000e+00 0.0000000000e+00
1.7060730961e+00 9.8500169410e-01 2.7860057378e+00
     1      1      1
 1  1  1     5.2734545360e-01
 1  1  2    -2.0154144259e-01
 1  1  3    -7.4704731419e-01
 1  2  1    -1.0103512871e-01
 1  2  2     2.3380919583e-01
 1  2  3    -6.3248125811e-01
 1  3  1    -4.2250328522e-01
 1  3  2    -4.2385622581e-01
 1  3  3    -1.5060912985e+00
 2  1  1    -1.0103512871e-01
 2  1  2     2.3380919583e-01
 2  1  3    -6.3248125811e-01
 2  2  1     5.9727136418e-02
 2  2  2     5.4048795864e-01
 2  2  3    -1.6720777639e-02
 2  3  1    -4.2385624801e-01
 2  3  2     6.6923794607e-02
 2  3  3    -8.6954219044e-01
 3  1  1    -4.2250328522e-01
 3  1  2    -4.2385622581e-01
 3  1  3    -1.5060912985e+00
 3  2  1    -4.2385624801e-01
 3  2  2     6.6923794607e-02
 3  2  3    -8.6954219044e-01
 3  3  1    -3.4680559744e-01
 3  3  2    -2.0022828829e-01
 3  3  3    -7.2776431628e-01

   16
0.0000000000e+00 0.0000000000e+00 0.0000000000e+00
-1.7060731547e+00 9.8500169410e-01 2.7860057378e+00
     1      1      1
 1  1  1    -5.2734541616e-01
 1  1  2    -2.0154147943e-01
 1  1  3    -7.4704737259e-01
 1  2  1    -1.0103516746e-01
 1  2  2    -2.3380918443e-01
 1  2  3     6.3248128360e-01
 1  3  1    -4.2250331942e-01
 1  3  2     4.2385623343e-01
 1  3  3     1.5060912986e+00
 2  1  1    -1.0103516746e-01
 2  1  2    -2.3380918443e-01
 2  1  3     6.3248128360e-01
 2  2  1    -5.9727122531e-02
 2  2  2     5.4048795864e-01
 2  2  3    -1.6720777639e-02
 2  3  1     4.2385627557e-01
 2  3  2     6.6923794607e-02
 2  3  3    -8.6954219044e-01
 3  1  1    -4.2250331942e-01
 3  1  2     4.2385623343e-01
 3  1  3     1.5060912986e+00
 3  2  1     4.2385627557e-01
 3  2  2     6.6923794607e-02
 3  2  3    -8.6954219044e-01
 3  3  1     3.4680561416e-01
 3  3  2    -2.0022828829e-01
 3  3  3    -7.2776431628e-01

   17
0.0000000000e+00 0.0000000000e+00 0.0000000000e+00
7.3000003264e-09 3.9400070083e+00 2.7860057378e+00
     1      1      1
 1  1  1    -9.4573052554e-12
 1  1  2     7.7172579495e-02
 1  1  3     5.4569255542e-02
 1  2  1    -4.1138471280e-02
 1  2  2    -1.2013498438e-10
 1  2  3     1.0686844297e-09
 1  3  1    -2.9089292682e-02
 1  3  2    -1.3999714750e-09
 1  3  3    -3.0261873038e-10
 2  1  1    -4.1138471280e-02
 2  1  2    -1.2013498438e-10
 2  1  3     1.0686844297e-09
 2  2  1    -1.2194147926e-09
 2  2  2    -1.3272980052e-01
 2  2  3    -2.8500856763e-02
 2  3  1     1.5464488299e-10
 2  3  2    -1.0229844467e-01
 2  3  3    -9.5441799767e-02
 3  1  1    -2.9089292682e-02
 3  1  2    -1.3999714750e-09
 3  1  3    -3.0261873038e-10
 3  2  1     1.5464488299e-10
 3  2  2    -1.0229844467e-01
 3  2  3    -9.5441799767e-02
 3  3  1     9.9002834691e-10
 3  3  2     8.9237461870e-03
 3  3  3    -5.9043245001e-02

   18
0.0000000000e+00 0.0000000000e+00 0.0000000000e+00
-5.1182194787e+00 -4.9250089343e+00 2.7860057378e+00
     1      1      2
 1  1  1    -1.7261038824e-09
 1  1  2     6.2789287604e-02
 1  1  3    -1.4472681161e-01
 1  2  1    -5.1331007281e-02
 1  2  2     3.5314634996e-09
 1  2  3    -2.0939588698e-09
 1  3  1     1.1372551081e-01
 1  3  2    -1.3096006778e-09
 1  3  3     4.0383424819e-09
 2  1  1    -5.1331007281e-02
 2  1  2     3.5314634996e-09
 2  1  3    -2.0939588698e-09
 2  2  1     7.6106061624e-10
 2  2  2     6.6610860305e-02
 2  2  3     4.2941958878e-03
 2  3  1    -4.3975195982e-09
 2  3  2    -1.8169034489e-01
 2  3  3     1.4414362699e-01
 3  1  1     1.1372551081e-01
 3  1  2    -1.3096006778e-09
 3  1  3     4.0383424819e-09
 3  2  1    -4.3975195982e-09
 3  2  2    -1.8169034489e-01
 3  2  3     1.4414362699e-01
 3  3  1     1.4707705232e-09
 3  3  2    -6.3156612930e-02
 3  3  3    -1.5125080765e-01

   19
0.0000000000e+00 0.0000000000e+00 0.0000000000e+00
-6.5900000179e-08 -1.9700036201e+00 2.7860057378e+00
     1      1      1
 1  1  1    -3.0786640806e-08
 1  1  2    -3.0499187422e-01
 1  1  3     3.4844243251e-01
 1  2  1    -5.0600451707e-01
 1  2  2     5.3201164078e-09
 1  2  3    -3.9680767912e-08
 1  3  1     3.1163729994e-01
 1  3  2    -1.4229144155e-08
 1  3  3     3.2380578487e-08
 2  1  1    -5.0600451707e-01
 2  1  2     5.3201164091e-09
 2  1  3    -3.9680767980e-08
 2  2  1     1.1948689364e-08
 2  2  2    -3.7290103764e-01
 2  2  3    -1.1122106832e+00
 2  3  1    -3.4169179456e-08
 2  3  2    -6.6721688655e-01
 2  3  3     1.7390844415e+00
 3  1  1     3.1163729994e-01
 3  1  2    -1.4229144151e-08
 3  1  3     3.2380578466e-08
 3  2  1    -3.4169179455e-08
 3  2  2    -6.6721688655e-01
 3  2  3     1.7390844415e+00
 3  3  1     1.5800649558e-08
 3  3  2     4.0045663715e-01
 3  3  3    -7.2776431628e-01

   20
0.0000000000e+00 0.0000000000e+00 0.0000000000e+00
3.4121461849e+00 -1.9700036201e+00 2.7860057378e+00
     1      1      1
 1  1  1    -8.7315662930e-02
 1  1  2     9.2732493208e-03
 1  1  3    -7.7333296011e-03
 1  2  1     6.8428779190e-02
 1  2  2    -6.3258681933e-02
 1  2  3     3.5970417992e-02
 1  3  1    -8.3996157632e-02
 1  3  2     3.1700495911e-02
 1  3  3    -8.2655023701e-02
 2  1  1     6.8428779190e-02
 2  1  2    -6.3258681933e-02
 2  1  3     3.5970417992e-02
 2  2  1     3.9201693797e-02
 2  2  2     1.8505363727e-02
 2  2  3     3.3801722928e-02
 2  3  1     3.1700492626e-02
 2  3  2    -4.7391582177e-02
 2  3  3     4.7720902341e-02
 3  1  1    -8.3996157632e-02
 3  1  2     3.1700495911e-02
 3  1  3    -8.2655023701e-02
 3  2  1     3.1700492626e-02
 3  2  2    -4.7391582177e-02
 3  2  3     4.7720902341e-02
 3  3  1     7.7281903538e-03
 3  3  2    -4.4618706362e-03
 3  3  3    -5.9043245001e-02

   21
0.0000000000e+00 0.0000000000e+00 0.0000000000e+00
-6.8242925675e+00 -1.9700036201e+00 2.7860057378e+00
     1      1      2
 1  1  1     3.4632321608e-02
 1  1  2    -7.1325986193e-02
 1  1  3    -3.2961055260e-02
 1  2  1    -1.4265836167e-02
 1  2  2    -2.1399585238e-02
 1  2  3    -6.4527995859e-02
 1  3  1    -1.0783637904e-01
 1  3  2     1.2791881365e-01
 1  3  3     1.2483204135e-01
 2  1  1    -1.4265836167e-02
 2  1  2    -2.1399585238e-02
 2  1  3    -6.4527995859e-02
 2  2  1     7.7431479182e-02
 2  2  2     6.6259160181e-03
 2  2  3    -1.0747155223e-01
 2  3  1     1.2791882018e-01
 2  3  2     3.9871547392e-02
 2  3  3    -7.2071807198e-02
 3  1  1    -1.0783637904e-01
 3  1  2     1.2791881365e-01
 3  1  3     1.2483204135e-01
 3  2  1     1.2791882018e-01
 3  2  2     3.9871547392e-02
 3  2  3    -7.2071807198e-02
 3  3  1    -5.4695232582e-02
 3  3  2     3.1578312760e-02
 3  3  3    -1.5125080765e-01

   22
0.0000000000e+00 0.0000000000e+00 0.0000000000e+00
-3.4121463167e+00 -1.9700036201e+00 2.7860057378e+00
     1      1      1
 1  1  1     8.7315671785e-02
 1  1  2     9.2732543436e-03
 1  1  3    -7.7333363081e-03
 1  2  1     6.8428781802e-02
 1  2  2     6.3258683804e-02
 1  2  3    -3.5970418577e-02
 1  3  1    -8.3996161435e-02
 1  3  2    -3.1700496952e-02
 1  3  3     8.2655026642e-02
 2  1  1     6.8428781802e-02
 2  1  2     6.3258683804e-02
 2  1  3    -3.5970418577e-02
 2  2  1    -3.9201694346e-02
 2  2  2     1.8505363727e-02
 2  2  3     3.3801722928e-02
 2  3  1    -3.1700495222e-02
 2  3  2    -4.7391582177e-02
 2  3  3     4.7720902341e-02
 3  1  1    -8.3996161435e-02
 3  1  2    -3.1700496952e-02
 3  1  3     8.2655026642e-02
 3  2  1    -3.1700495222e-02
 3  2  2    -4.7391582177e-02
 3  2  3     4.7720902341e-02
 3  3  1    -7.7281887053e-03
 3  3  2    -4.4618706362e-03
 3  3  3    -5.9043245001e-02

   23
0.0000000000e+00 0.0000000000e+00 0.0000000000e+00
-3.4121463167e+00 -1.9700036201e+00 2.7860057378e+00
     1      1      2
 1  1  1    -3.4632316675e-02
 1  1  2    -7.1325977511e-02
 1  1  3    -3.2961044625e-02
 1  2  1    -1.4265835667e-02
 1  2  2     2.1399584214e-02
 1  2  3     6.4527995344e-02
 1  3  1    -1.0783638329e-01
 1  3  2    -1.2791881361e-01
 1  3  3    -1.2483203863e-01
 2  1  1    -1.4265835667e-02
 2  1  2     2.1399584214e-02
 2  1  3     6.4527995344e-02
 2  2  1    -7.7431475816e-02
 2  2  2     6.6259160181e-03
 2  2  3    -1.0747155223e-01
 2  3  1    -1.2791881704e-01
 2  3  2     3.9871547392e-02
 2  3  3    -7.2071807198e-02
 3  1  1    -1.0783638329e-01
 3  1  2    -1.2791881361e-01
 3  1  3    -1.2483203863e-01
 3  2  1    -1.2791881704e-01
 3  2  2     3.9871547392e-02
 3  2  3    -7.2071807198e-02
 3  3  1     5.4695237871e-02
 3  3  2     3.1578312760e-02
 3  3  3    -1.5125080765e-01

   24
0.0000000000e+00 0.0000000000e+00 0.0000000000e+00
-3.4121461922e+00 -1.9700033882e+00 -5.5720114756e+00
     1      1      2
 1  1  1    -4.0411202603e-03
 1  1  2     1.2300777179e-02
 1  1  3    -2.3979463269e-01
 1  2  1    -3.6464972023e-02
 1  2  2    -2.9501957204e-02
 1  2  3    -5.8895670488e-03
 1  3  1     4.9044841044e-02
 1  3  2     1.0783611856e-01
 1  3  3     9.8462072135e-03
 2  1  1    -3.6464972023e-02
 2  1  2    -2.9501957204e-02
 2  1  3    -5.8895670488e-03
 2  2  1     5.4962787557e-02
 2  2  2     1.7098875047e-02
 2  2  3    -2.3299394680e-01
 2  3  1     1.0783611887e-01
 2  3  2    -7.5473586940e-02
 2  3  3     5.6847076823e-03
 3  1  1     4.9044841044e-02
 3  1  2     1.0783611856e-01
 3  1  3     9.8462072135e-03
 3  2  1     1.0783611887e-01
 3  2  2    -7.5473586940e-02
 3  2  3     5.6847076823e-03
 3  3  1    -6.2579780376e-03
 3  3  2    -3.6130478768e-03
 3  3  3     1.3700465219e-01

   25
0.0000000000e+00 0.0000000000e+00 0.0000000000e+00
-6.8242924430e+00 -1.9700033882e+00 -5.5720114756e+00
     1      1      2
 1  1  1     4.0411229801e-03
 1  1  2     1.2300785066e-02
 1  1  3    -2.3979463181e-01
 1  2  1    -3.6464969617e-02
 1  2  2     2.9501959876e-02
 1  2  3     5.8895611079e-03
 1  3  1     4.9044835808e-02
 1  3  2    -1.0783612032e-01
 1  3  3    -9.8462111543e-03
 2  1  1    -3.6464969617e-02
 2  1  2     2.9501959876e-02
 2  1  3     5.8895611079e-03
 2  2  1    -5.4962780192e-02
 2  2  2     1.7098875047e-02
 2  2  3    -2.3299394680e-01
 2  3  1    -1.0783612091e-01
 2  3  2    -7.5473586940e-02
 2  3  3     5.6847076823e-03
 3  1  1     4.9044835808e-02
 3  1  2    -1.0783612032e-01
 3  1  3    -9.8462111543e-03
 3  2  1    -1.0783612091e-01
 3  2  2    -7.5473586940e-02
 3  2  3     5.6847076823e-03
 3  3  1     6.2579738665e-03
 3  3  2    -3.6130478768e-03
 3  3  3     1.3700465219e-01

   26
0.0000000000e+00 0.0000000000e+00 0.0000000000e+00
-5.1182192810e+00 9.8500192600e-01 -5.5720114756e+00
     1      1      2
 1  1  1     1.7721076877e-09
 1  1  2    -1.1551998786e-01
 1  1  3     1.0744057502e-01
 1  2  1     9.0111107168e-02
 1  2  2    -2.9409602632e-09
 1  2  3     4.8762514139e-10
 1  3  1    -8.6303838575e-02
 1  3  2     2.0935541167e-09
 1  3  3    -4.6897912213e-09
 2  1  1     9.0111107168e-02
 2  1  2    -2.9409602632e-09
 2  1  3     4.8762514139e-10
 2  2  1     8.9382517747e-10
 2  2  2    -9.5200341058e-02
 2  2  3    -1.3916294977e-01
 2  3  1     3.6762087707e-09
 2  3  2     1.1827643597e-01
 2  3  3    -1.4844810201e-01
 3  1  1    -8.6303838575e-02
 3  1  2     2.0935541167e-09
 3  1  3    -4.6897912213e-09
 3  2  1     3.6762087707e-09
 3  2  2     1.1827643597e-01
 3  2  3    -1.4844810201e-01
 3  3  1    -3.3738305766e-09
 3  3  2    -4.2200269312e-02
 3  3  3     1.9140517630e-01

   27
0.0000000000e+00 0.0000000000e+00 0.0000000000e+00
-5.1182193542e+00 -4.9250087024e+00 -5.5720114756e+00
     1      1      2
 1  1  1     6.8590548369e-09
 1  1  2    -8.2897564378e-02
 1  1  3    -2.2959360843e-01
 1  2  1     1.4633920930e-02
 1  2  2    -1.3594956395e-09
 1  2  3    -2.8427980140e-09
 1  3  1    -1.3773280110e-01
 1  3  2     1.2709469565e-09
 1  3  3    -2.1816235174e-09
 2  1  1     1.4633920930e-02
 2  1  2    -1.3594956385e-09
 2  1  3    -2.8427980072e-09
 2  2  1     3.9210782002e-09
 2  2  2     2.4098292786e-02
 2  2  3    -2.4319496953e-01
 2  3  1     1.5479433905e-09
 2  3  2     1.1130405018e-01
 2  3  3    -1.1369426768e-02
 3  1  1    -1.3773280110e-01
 3  1  2     1.2709469578e-09
 3  1  3    -2.1816235152e-09
 3  2  1     1.5479434089e-09
 3  2  2     1.1130405018e-01
 3  2  3    -1.1369426768e-02
 3  3  1    -1.9513038922e-09
 3  3  2     7.2260843497e-03
 3  3  3     1.3700465219e-01

   28
0.0000000000e+00 0.0000000000e+00 0.0000000000e+00
-1.7060731034e+00 -4.9250087024e+00 -5.5720114756e+00
     1      1      2
 1  1  1    -4.7825991240e-02
 1  1  2     1.1772345993e-01
 1  1  3    -7.7512069714e-02
 1  2  1     1.4907905978e-02
 1  2  2     4.3418584749e-02
 1  2  3     1.0678246526e-01
 1  3  1     6.7131364856e-02
 1  3  2    -8.8585852422e-02
 1  3  3    -1.2855982571e-01
 2  1  1     1.4907905978e-02
 2  1  2     4.3418584749e-02
 2  1  3     1.0678246526e-01
 2  2  1    -1.3466315725e-01
 2  2  2    -1.2363290942e-02
 2  2  3     4.5789686534e-02
 2  3  1    -8.8585855766e-02
 2  3  2    -3.5158773012e-02
 2  3  3     7.4224043041e-02
 3  1  1     6.7131364856e-02
 3  1  2    -8.8585852422e-02
 3  1  3    -1.2855982571e-01
 3  2  1    -8.8585855766e-02
 3  2  2    -3.5158773012e-02
 3  2  3     7.4224043041e-02
 3  3  1    -3.6546503514e-02
 3  3  2     2.1100126690e-02
 3  3  3     1.9140517630e-01

   29
0.0000000000e+00 0.0000000000e+00 0.0000000000e+00
-8.5303656050e+00 -4.9250087024e+00 -5.5720114756e+00
     1      1      2
 1  1  1     4.7825993204e-02
 1  1  2     1.1772345250e-01
 1  1  3    -7.7512082665e-02
 1  2  1     1.4907908781e-02
 1  2  2    -4.3418584008e-02
 1  2  3    -1.0678246633e-01
 1  3  1     6.7131364326e-02
 1  3  2     8.8585850922e-02
 1  3  3     1.2855982185e-01
 2  1  1     1.4907908781e-02
 2  1  2    -4.3418584008e-02
 2  1  3    -1.0678246633e-01
 2  2  1     1.3466315558e-01
 2  2  2    -1.2363290942e-02
 2  2  3     4.5789686534e-02
 2  3  1     8.8585852684e-02
 2  3  2    -3.5158773012e-02
 2  3  3     7.4224043041e-02
 3  1  1     6.7131364326e-02
 3  1  2     8.8585850922e-02
 3  1  3     1.2855982185e-01
 3  2  1     8.8585852684e-02
 3  2  2    -3.5158773012e-02
 3  2  3     7.4224043041e-02
 3  3  1     3.6546498334e-02
 3  3  2     2.1100126690e-02
 3  3  3     1.9140517630e-01

   30
0.0000000000e+00 0.0000000000e+00 0.0000000000e+00
-1.7060730961e+00 -9.8500169410e-01 -2.7860057378e+00
     1      1      1
 1  1  1    -2.7815801154e-01
 1  1  2    -3.5448314779e-02
 1  1  3    -2.5571072616e-01
 1  2  1     1.5403883646e-02
 1  2  2    -6.3359812867e-02
 1  2  3     8.5439639552e-02
 1  3  1     5.3528160252e-01
 1  3  2     6.4445353699e-01
 1  3  3     9.7775210319e-01
 2  1  1     1.5403883646e-02
 2  1  2    -6.3359812867e-02
 2  1  3     8.5439639552e-02
 2  2  1    -1.5143844243e-01
 2  2  2    -2.1257927621e-01
 2  2  3    -3.5436797015e-01
 2  3  1     6.4445352264e-01
 2  3  2    -2.0886931633e-01
 2  3  3     5.6450541585e-01
 3  1  1     5.3528160252e-01
 3  1  2     6.4445353699e-01
 3  1  3     9.7775210319e-01
 3  2  1     6.4445352264e-01
 3  2  2    -2.0886931633e-01
 3  2  3     5.6450541585e-01
 3  3  1     1.7275165597e+00
 3  3  2     9.9738212056e-01
 3  3  3     8.4568662863e-01

   31
0.0000000000e+00 0.0000000000e+00 0.0000000000e+00
-1.7060730961e+00 -9.8500169410e-01 -2.7860057378e+00
     1      1      2
 1  1  1     3.6195757086e-02
 1  1  2    -1.0408012451e-01
 1  1  3     3.3593818544e-02
 1  2  1    -1.6363896979e-01
 1  2  2    -2.2321059854e-02
 1  2  3     2.0333813686e-02
 1  3  1    -5.2846631279e-02
 1  3  2    -6.4983398478e-02
 1  3  3    -1.1205850220e-01
 2  1  1    -1.6363896979e-01
 2  1  2    -2.2321059854e-02
 2  1  3     2.0333813686e-02
 2  2  1     8.0837892212e-02
 2  2  2     1.7164952943e-01
 2  2  3     1.0114357227e-02
 2  3  1    -6.4983403917e-02
 2  3  2     2.2189737882e-02
 2  3  3    -6.4697005877e-02
 3  1  1    -5.2846631279e-02
 3  1  2    -6.4983398478e-02
 3  1  3    -1.1205850220e-01
 3  2  1    -6.4983403917e-02
 3  2  2     2.2189737882e-02
 3  2  3    -6.4697005877e-02
 3  3  1     1.7202067907e-01
 3  3  2     9.9316183598e-02
 3  3  3     1.9596137656e-02

   32
0.0000000000e+00 0.0000000000e+00 0.0000000000e+00
1.7060731547e+00 -9.8500169410e-01 -2.7860057378e+00
     1      1      1
 1  1  1     2.7815798715e-01
 1  1  2    -3.5448273241e-02
 1  1  3    -2.5571067214e-01
 1  2  1     1.5403910712e-02
 1  2  2     6.3359813823e-02
 1  2  3    -8.5439665147e-02
 1  3  1     5.3528165119e-01
 1  3  2    -6.4445357188e-01
 1  3  3    -9.7775211440e-01
 2  1  1     1.5403910712e-02
 2  1  2     6.3359813823e-02
 2  1  3    -8.5439665147e-02
 2  2  1     1.5143844772e-01
 2  2  2    -2.1257927621e-01
 2  2  3    -3.5436797015e-01
 2  3  1    -6.4445354463e-01
 2  3  2    -2.0886931633e-01
 2  3  3     5.6450541585e-01
 3  1  1     5.3528165119e-01
 3  1  2    -6.4445357188e-01
 3  1  3    -9.7775211440e-01
 3  2  1    -6.4445354463e-01