  0.00000000000000000E+00  0.00000000000000000E+00  0.00000000000000000E+00
  0.00000000000000000E+00  0.00000000000000000E+00  0.00000000000000000E+00
  0.00000000000000000E+00  0.00000000000000000E+00  0.00000000000000000E+00
  0.12602450164588760E+03  0.70965166333580324E-02  0.10149973471334727E-02
  0.12602450164588764E+03  0.70965166333583542E-02  0.10149973471335163E-02
  0.12602450164588767E+03  0.70965166333585754E-02  0.10149973471335456E-02
  0.51565590340367242E+01  0.12267706764777572E-03  0.86013193237065148E-03
  0.51567807631529066E+01  0.12268529709789276E-03  0.86019003926869099E-03
  0.88760951864910798E+01  0.31345444691193949E-03  0.22363122029850999E-02
  0.12584255320847925E+03  0.12815116222140745E-01  0.18267920047430729E-02
  0.12584257240756146E+03  0.12814414264071435E-01  0.18266928546588144E-02
  0.12613739924138422E+03  0.10068795064519222E-01  0.14125490664280490E-02
  0.10047512433368075E+02  0.43286579329426079E-03  0.31055980653978965E-02
  0.10047732574955038E+02  0.43288447206904084E-03  0.31057354857353253E-02
  0.17548919235033843E+02  0.14100269203645625E-02  0.10898736753449739E-01
  0.12534498808676628E+03  0.23203545030320613E-01  0.32238475260067336E-02
  0.12534502534331453E+03  0.23203340538921084E-01  0.32238252028638404E-02
  0.12646095183128250E+03  0.17066151209483821E-01  0.22523842019322162E-02
  0.14429901190229380E+02  0.95407226565689138E-03  0.71040691784616354E-02
  0.14430117674581961E+02  0.95411512222347760E-03  0.71043999703354647E-02
  0.25812628750845725E+02  0.60800719724288703E-02  0.55028202195244659E-01
  0.12466160508308508E+03  0.37946346618792218E-01  0.50527263241271526E-02
  0.12466165792127707E+03  0.37945305965192772E-01  0.50526096304603953E-02
  0.12695314584382142E+03  0.29211408529747452E-01  0.34394995227189753E-02
  0.18122087993760807E+02  0.16284180326762911E-02  0.12677325241304837E-01
  0.18122297070466782E+02  0.16284869463609008E-02  0.12677892540662459E-01
  0.33463702435226558E+02  0.87956286831438329E-02  0.10127971196456659E+00
  0.12396195958787462E+03  0.65001646094698592E-01  0.81962644507728531E-02
  0.12396202394819397E+03  0.64997592318445166E-01  0.81958024679246906E-02
  0.12755421404764542E+03  0.54628610034005154E-01  0.53351761157231677E-02
  0.21032650051237564E+02  0.24590752606073779E-02  0.20041237986575939E-01
  0.21032845776935034E+02  0.24591804181906523E-02  0.20042157080961756E-01
  0.40303633643547194E+02  0.43947091230273436E-02  0.73563314101482660E-01
  0.12339844222789904E+03  0.10295111280161923E+00  0.12283276667543455E-01
  0.12339851240220720E+03  0.10294502237160927E+00  0.12282650046821140E-01
  0.12819830085689398E+03  0.12771838593223622E+00  0.89528756171914064E-02
  0.23174823976461159E+02  0.34398415429635603E-02  0.29198404927567301E-01
  0.23174998171976558E+02  0.34399931756230731E-02  0.29199797856966928E-01
  0.46148053654368539E+02  0.26744389787110973E-02  0.64530863152460566E-01
  0.12305591341328618E+03  0.18633864688799601E+00  0.21086256022486826E-01
  0.12305598239403447E+03  0.18629421831726889E+00  0.21081662465869552E-01
  0.12882330669747284E+03  0.23774463518573130E+00  0.12094245695821524E-01
  0.24646640700460463E+02  0.44262792475780405E-02  0.38791760131823144E-01
  0.24646783677620494E+02  0.44264786578698317E-02  0.38793721061567588E-01
  0.50839728644112959E+02  0.25518695455971855E-02  0.11676557882584204E+00
  0.12293131639778403E+03  0.26421979780141858E+00  0.29160325058498179E-01
  0.12293137668528186E+03  0.26419374785993499E+00  0.29157754634545830E-01
  0.12937556572990309E+03  0.74302685806845958E+00  0.28438971572837621E-01
  0.25581162430625785E+02  0.59324217259744344E-02  0.53398281455067850E-01
  0.25581264475796608E+02  0.59326277602569991E-02  0.53400287185723656E-01
  0.54260793610605774E+02  0.67477459937212740E-03  0.71817836633079585E-01
  0.12295184747172398E+03  0.25163066256117933E+00  0.27864436748461112E-01
  0.12295189214567323E+03  0.25159614663974000E+00  0.27860808943765733E-01
  0.12980973011942100E+03  0.35385497316129705E+00  0.12194398205147875E-01
  0.26094540675787034E+02  0.75292307134030142E-02  0.68818898225239358E-01
  0.26094593904689514E+02  0.75293841652320243E-02  0.68820394550236724E-01
  0.56337288495101120E+02  0.10569711549433643E-03  0.33778332348561368E-01
  0.12301831902327532E+03  0.20615281043106271E+00  0.23098498551203356E-01
  0.12301834279118572E+03  0.20614230518557550E+00  0.23097443130407534E-01
  0.13008820848118333E+03  0.23530541896717053E+00  0.75172576043187897E-02
  0.26258043068693691E+02  0.83292969378005819E-02  0.76533305818176092E-01
  0.26258043203069160E+02  0.83292969987354328E-02  0.76533306602050710E-01
  0.57032859438979727E+02  0.17274950297403906E-04  0.14075580143695626E-01
  0.12305056411148733E+03  0.18971341168189940E+00  0.21434080902476092E-01
  0.12305056417461095E+03  0.18971337297910801E+00  0.21434076922399924E-01
  0.13018433326232304E+03  0.20410588520040102E+00  0.64577472856087673E-02
  0.68668830946713513E+01  0.17565602826524605E-03  0.12401010983291937E-02
  0.68671714397078878E+01  0.17566972513489548E-03  0.12401995230851047E-02
  0.90804857626666156E+01  0.33425808418176462E-03  0.23872011377997341E-02
  0.12577045452609232E+03  0.13157814483295411E-01  0.18694531361690837E-02
  0.12577048694886003E+03  0.13158195570713134E-01  0.18695111821474164E-02
  0.12619600886969621E+03  0.10014165472646032E-01  0.13907810678870246E-02
  0.10147133950214011E+02  0.44105557295793949E-03  0.31659561042873558E-02
  0.10804198318408593E+02  0.48496352741121408E-03  0.34948699732069966E-02
  0.15968223802238246E+02  0.11038998116586472E-02  0.83375153259738523E-02
  0.12536109774707299E+03  0.23085459778128675E-01  0.32099872630279055E-02
  0.12538043874597409E+03  0.22864072923941523E-01  0.31820209497528968E-02
  0.12645677726413427E+03  0.17010615676154191E-01  0.22467380818809147E-02
  0.13995436444591070E+02  0.85711954218223513E-03  0.63610652578095107E-02
  0.14873758695635729E+02  0.10284499156363632E-02  0.76849068104250726E-02
  0.23820709062445523E+02  0.38703996400429146E-02  0.33284242318512104E-01
  0.12471726063720118E+03  0.37017195537900872E-01  0.49507048584781273E-02
  0.12478227669677787E+03  0.36205072924338701E-01  0.48641891318535373E-02
  0.12687482137714822E+03  0.26778391754819782E-01  0.32219955080667584E-02
  0.17730269141335729E+02  0.14825113896565494E-02  0.11486467970197126E-01
  0.18445246024883428E+02  0.17212372873159510E-02  0.13450620876358694E-01
  0.31370175248550119E+02  0.83771355752232587E-02  0.88971844212778303E-01
  0.12399917823544666E+03  0.62694539286191064E-01  0.79339293279499720E-02
  0.12411559550877814E+03  0.57254831560954442E-01  0.73319465634636123E-02
  0.12740352269597489E+03  0.47216873594380517E-01  0.48714539907827583E-02
  0.20941189194921602E+02  0.24078362632950091E-02  0.19594729792951449E-01
  0.21294104734953919E+02  0.25835630066688990E-02  0.21142323184293654E-01
  0.38272667045341329E+02  0.56521206270440843E-02  0.83367285830019414E-01
  0.12337035432031183E+03  0.10544287374620728E+00  0.12539815160851392E-01
  0.12352368517282491E+03  0.92719858115680703E-01  0.11239587718480985E-01
  0.12798420228010264E+03  0.93355412299862425E-01  0.73984564502378794E-02
  0.23389614844011142E+02  0.36104945316922004E-02  0.30782657100887265E-01
  0.23472180246331057E+02  0.36670637743353714E-02  0.31317066652652464E-01
  0.44303552831523895E+02  0.29932708934394523E-02  0.62271879261355745E-01
  0.12294098773850583E+03  0.25918141128507399E+00  0.28650938717751196E-01
  0.12310230708390101E+03  0.15710232192611284E+00  0.18026545644425639E-01
  0.12856139083618552E+03  0.18379446255421797E+00  0.10717976402601807E-01
  0.24830265485018138E+02  0.45414859983192567E-02  0.39992423608803139E-01
  0.25309087343492568E+02  0.52173506533952380E-02  0.46604580115718143E-01
  0.49285120966553301E+02  0.21428538012435812E-02  0.72758299918448857E-01
  0.12273592394403067E+03  0.27515685377477217E+00  0.29477916387475236E-01
  0.12287406898728322E+03  0.27463070466515155E+00  0.29960451968056197E-01
  0.12908858054921564E+03  0.35199432660664209E+00  0.15669283340572493E-01
  0.25770734777420621E+02  0.60433504582962988E-02  0.54636199880814473E-01
  0.26521122550125259E+02  0.79383471643413930E-02  0.73332916590095235E-01
  0.53077283743042798E+02  0.12884600663771665E-02  0.96048010800541359E-01
  0.12270254126976161E+03  0.26234694414956955E+00  0.28000091376821863E-01
  0.12279756273002502E+03  0.29085642789117860E+00  0.31357111822898374E-01
  0.12952569247616827E+03  0.54507288054041947E+00  0.20305249309864035E-01
  0.26344443606842361E+02  0.75029354699692706E-02  0.68976522750029662E-01
  0.27212000905556167E+02  0.81631307966512027E-02  0.76706158287039944E-01
  0.55579109298878556E+02  0.25801766965553115E-03  0.48560497653876586E-01
  0.12274963727730899E+03  0.28018229165703795E+00  0.30058252169896400E-01
  0.12280141957652610E+03  0.29097170975598702E+00  0.31383525678253747E-01
  0.12983472554919410E+03  0.33836804959507694E+00  0.11582786962370148E-01
  0.26616809534563160E+02  0.80596629603362519E-02  0.74625844445014022E-01
  0.27483776249557856E+02  0.84139689749581185E-02  0.79586947931435933E-01
  0.56728672488075489E+02  0.49268239903105001E-04  0.25840099717943474E-01
  0.12279344123471809E+03  0.29063146236944326E+00  0.31318661749713671E-01
  0.12282058414196202E+03  0.28918847543307485E+00  0.31265429138624456E-01
  0.12998204015350149E+03  0.27539262982931134E+00  0.89872397501464165E-02
  0.26582217488632050E+02  0.80380979704239228E-02  0.74366738349538816E-01
  0.27415321205782508E+02  0.83927113696449576E-02  0.79259368247566797E-01
  0.56498931964811661E+02  0.77013289297844472E-04  0.29133008816708744E-01
  0.12279126436777813E+03  0.29044598924936871E+00  0.31291311587407902E-01
  0.12281932147579400E+03  0.28937776065198728E+00  0.31280540850554941E-01
  0.12994825870785166E+03  0.28880168563686293E+00  0.95205484916342821E-02
  0.26185064952860955E+02  0.75224585669566467E-02  0.68898377056986468E-01
  0.27044892845007617E+02  0.79220776695475004E-02  0.74111469746585529E-01
  0.54893922470677381E+02  0.44889355122416176E-03  0.58196415929924854E-01
  0.12275550707644449E+03  0.28218146508103525E+00  0.30290410116172936E-01
  0.12280092568292662E+03  0.29097066391595033E+00  0.31381637670668004E-01
  0.12973683626510990E+03  0.41275689366666529E+00  0.14447381554528309E-01
  0.25339490232288654E+02  0.52940462073851873E-02  0.47333287015740404E-01
  0.26349464205684022E+02  0.74963504796180377E-02  0.68923477766425004E-01
  0.51950039554559339E+02  0.25329081077051160E-02  0.14713424144586251E+00
  0.12274794568859041E+03  0.27958590997198729E+00  0.29989196653075017E-01
  0.12280872088090651E+03  0.29070044497695063E+00  0.31381423187805527E-01
  0.12937253598118122E+03  0.74067208787672245E+00  0.28395243836355201E-01
  0.23942648495858624E+02  0.39288126828760737E-02  0.33870017983611216E-01
  0.25232813383240778E+02  0.50453362932716449E-02  0.44963102523946377E-01
  0.47741564137292620E+02  0.22801457229067175E-02  0.60318499098819672E-01
  0.12285573153491049E+03  0.27951849733714040E+00  0.30385889420083884E-01
  0.12291565594752112E+03  0.26892697096862245E+00  0.29594274391432245E-01
  0.12889162568461020E+03  0.26019697659741059E+00  0.12812803277365293E-01
  0.21894578862300172E+02  0.27518688427325818E-02  0.22736375246092844E-01
  0.23546295438970908E+02  0.37146632185315141E-02  0.31770786303163746E-01
  0.42385161808402266E+02  0.32695549302622262E-02  0.59826680671520124E-01
  0.12315314923048609E+03  0.14029134531201928E+00  0.16267963344327580E-01
  0.12319534455890292E+03  0.13182961814645805E+00  0.15377072929244298E-01
  0.12833397987118695E+03  0.13783850252145552E+00  0.90772692070267402E-02
  0.19134212537181718E+02  0.18218561500592441E-02  0.14358491871473278E-01
  0.21149723530827540E+02  0.25187927249982122E-02  0.20565901842883996E-01
  0.36041078441295468E+02  0.89517303377959542E-02  0.11702892656537979E+00
  0.12366092625671806E+03  0.85512814520675939E-01  0.10530524363035466E-01
  0.12367859593038268E+03  0.84514454875557088E-01  0.10424043231033015E-01
  0.12774339632330378E+03  0.68953923350324728E-01  0.62150519150360670E-02
  0.15685373179802690E+02  0.10958979967244035E-02  0.82508109697257657E-02
  0.17985798186927031E+02  0.15811465231380525E-02  0.12289485298919212E-01
  0.28918930674249939E+02  0.83538428722752401E-02  0.82137226648488326E-01
  0.12431895662501513E+03  0.53030502796453861E-01  0.68963950076030402E-02
  0.12432212949218079E+03  0.52922563419683731E-01  0.68835475340973196E-02
  0.12717172429835858E+03  0.36858903184446332E-01  0.41048007168769853E-02
  0.11711958881757960E+02  0.53355607244470293E-03  0.38728543683190404E-02
  0.14122273447220882E+02  0.88714600962993325E-03  0.65903006806583789E-02
  0.21322967669199766E+02  0.25951585819106960E-02  0.21246690121592238E-01
  0.12499392493562813E+03  0.31719519999045098E-01  0.43083404881491018E-02
  0.12500957350084735E+03  0.31075776557366777E-01  0.42238913604327683E-02
  0.12667810962741736E+03  0.22559355691740331E-01  0.28316694187185492E-02
  0.76747347259877055E+01  0.22091686796422432E-03  0.15659598133343829E-02
  0.96768772792222251E+01  0.39776633425668697E-03  0.28487022667670623E-02
  0.13933802724302982E+02  0.84213252273133261E-03  0.62468158407409206E-02
  0.12554660149038578E+03  0.17748342180805135E-01  0.24863855196759137E-02
  0.12556341179452487E+03  0.17055581319968451E-01  0.23911108550177407E-02
  0.12631924028308894E+03  0.13232604696756496E-01  0.17872272415315625E-02
  0.13486541436440310E+02  0.73552424598152474E-03  0.54358359935857553E-02
  0.13486826001356777E+02  0.73558808002863131E-03  0.54363214656728900E-02
  0.18053393213115651E+02  0.16052480890749847E-02  0.12486899896437394E-01
  0.12504176537760713E+03  0.29636490698251621E-01  0.40344225240605243E-02
  0.12504182404288284E+03  0.29633768004043916E-01  0.40340636108865723E-02
  0.12671929084497998E+03  0.23681579288549779E-01  0.29510336085692567E-02
  0.16512040732714123E+02  0.11333818935846374E-02  0.86235431812989646E-02
  0.16826257836087422E+02  0.11816465309382319E-02  0.90347928337089801E-02
  0.23818300309808109E+02  0.38691954704322741E-02  0.33272296790287773E-01
  0.12445609079921927E+03  0.46160314424746031E-01  0.60485411631820852E-02
  0.12449572376797235E+03  0.43918097074769208E-01  0.57698435197372023E-02
  0.12711691351916186E+03  0.34957080492399074E-01  0.39455062890266287E-02
  0.19705688963568029E+02  0.18605711340802420E-02  0.14795444765350607E-01
  0.19995307371268833E+02  0.19174161024693088E-02  0.15331122134405836E-01
  0.30437160394418182E+02  0.86599159256001840E-02  0.89244108426492413E-01
  0.12374007868673422E+03  0.80486348936143273E-01  0.99756104121734371E-02
  0.12388514958502178E+03  0.70018705013707327E-01  0.87703017232997806E-02
  0.12756500367714739E+03  0.55644826943050701E-01  0.54083587685963145E-02
  0.22599938662635921E+02  0.29502042535594882E-02  0.24721750531262604E-01
  0.22865627254406942E+02  0.31527446297984264E-02  0.26581047750830852E-01
  0.36815767189616537E+02  0.73617540468543094E-02  0.10027922532382046E+00
  0.12305228044746646E+03  0.18864864105087359E+00  0.21324528008451579E-01
  0.12331581101785747E+03  0.11116015040433301E+00  0.13139683063349488E-01
  0.12801591534437554E+03  0.96928993989822229E-01  0.75406064442443211E-02
  0.24524490527957056E+02  0.43204688809541552E-02  0.37748013538525645E-01
  0.25635848353015820E+02  0.59923514854432714E-02  0.54005892564387099E-01
  0.42580029693903029E+02  0.32370399632485622E-02  0.60192414864902698E-01
  0.12251833686263599E+03  0.22893251941362031E+00  0.23713224594596127E-01
  0.12285143368460173E+03  0.28084307084088778E+00  0.30506719198426731E-01
  0.12844166985199965E+03  0.15111057045464854E+00  0.94024637922205806E-02
  0.25840100007114028E+02  0.61200228528801200E-02  0.55432384811576148E-01
  0.27815097028483269E+02  0.81522699630009708E-02  0.77717360865372329E-01
  0.47518689296270921E+02  0.23239728932491314E-02  0.60541271458779786E-01
  0.12219192070181015E+03  0.23117464490076844E+00  0.23109848291158929E-01
  0.12250545545959125E+03  0.22918109010138615E+00  0.23691259655842647E-01
  0.12883030425787845E+03  0.24061707025773726E+00  0.12192305544239466E-01
  0.26709742939508974E+02  0.80113751316146561E-02  0.74330039214424881E-01
  0.29345606010614919E+02  0.82347497479017765E-02  0.81985145722695052E-01
  0.51468071948904061E+02  0.24407738833341114E-02  0.12555454254992862E+00
  0.12205179402375573E+03  0.21864499314616748E+00  0.21576362500721327E-01
  0.12225964689953413E+03  0.23576706198008451E+00  0.23707267940402253E-01
  0.12917145916659658E+03  0.38877412436308079E+00  0.16628829402659355E-01
  0.27284512853593146E+02  0.82665953806057048E-02  0.77821653259138590E-01
  0.30272384270044288E+02  0.85419320471416850E-02  0.87598965148662306E-01
  0.54283747008211030E+02  0.66534441205692830E-03  0.71330449807239793E-01
  0.12203152680882160E+03  0.21685991688372008E+00  0.21355310937935579E-01
  0.12209774679869921E+03  0.22282041550751361E+00  0.22087601960422521E-01
  0.12943924614326883E+03  0.70593547975635640E+00  0.26586720691514562E-01
  0.27631635304328643E+02  0.83527478927816080E-02  0.79277891129247005E-01
  0.30697782291822882E+02  0.87325138206824030E-02  0.90682975578527003E-01
  0.55845331014698964E+02  0.19823820015064749E-03  0.42377302885859752E-01
  0.12202245033725890E+03  0.21608097165862977E+00  0.21258191993198214E-01
  0.12206013683949438E+03  0.21939086819537634E+00  0.21668168895433465E-01
  0.12959195974803461E+03  0.54660896244057877E+00  0.19634729735162719E-01
  0.27722670145257180E+02  0.82612657378107832E-02  0.78577676780721861E-01
  0.30738149190398019E+02  0.87280731728239351E-02  0.90745270768203268E-01
  0.56074743467747922E+02  0.15539765776823036E-03  0.38972878504404992E-01
  0.12204359934369246E+03  0.21792874037707535E+00  0.21487592134492643E-01
  0.12209336511946150E+03  0.22241923587877083E+00  0.22038713718649988E-01
  0.12959234408715463E+03  0.54671126489900090E+00  0.19635126839092028E-01
  0.27467626658828056E+02  0.84117999867299072E-02  0.79536701013365824E-01
  0.30483077918224236E+02  0.86844764501328997E-02  0.89617759351258763E-01
  0.54952514154056161E+02  0.43032256467700011E-03  0.57396141576433406E-01
  0.12212774440580273E+03  0.22557492086235312E+00  0.22422894122681149E-01
  0.12215848310658124E+03  0.22832786628656124E+00  0.22758999156837448E-01
  0.12943049908675238E+03  0.72477464516997769E+00  0.27294433444292544E-01
  0.26758110710660198E+02  0.79545587114846390E-02  0.73881476306479302E-01
  0.29956239904902478E+02  0.82848421834634534E-02  0.84127511208857336E-01
  0.52522847619228493E+02  0.17945518837404217E-02  0.11703736378599829E+00
  0.12219848359780464E+03  0.23169699660418447E+00  0.23175138469441210E-01
  0.12235037518480917E+03  0.23724715381793024E+00  0.24058155350676718E-01
  0.12913065992400135E+03  0.38041356313395119E+00  0.16550314189059466E-01
  0.25497085715385229E+02  0.57465032991584532E-02  0.51614455344829849E-01
  0.29088048155861813E+02  0.83321758714173678E-02  0.82318356623418507E-01
  0.48888133404403341E+02  0.20200348572989423E-02  0.60531583573023379E-01
  0.12236390299024329E+03  0.23685990873920604E+00  0.24051767674386836E-01
  0.12260826427646090E+03  0.23525776531608447E+00  0.24747042834082134E-01
  0.12873778321962376E+03  0.20630294591832507E+00  0.11085620720593822E-01
  0.23618942572414280E+02  0.37591855970804779E-02  0.32198296601552975E-01
  0.27721785222749556E+02  0.82622721787566928E-02  0.78585592645922811E-01
  0.44202386125002924E+02  0.30246100706192518E-02  0.62513363250236098E-01
  0.12267910195854731E+03  0.25382711755700704E+00  0.27007856352824787E-01
  0.12294421910719946E+03  0.25712585376569130E+00  0.28438529237975092E-01
  0.12829619387976564E+03  0.13680052119316266E+00  0.91542829886504737E-02
  0.21114673137580393E+02  0.25017000613572014E-02  0.20415095075059852E-01
  0.25662923080787078E+02  0.60071880291875778E-02  0.54172485115846429E-01
  0.38678334230693039E+02  0.52386081621012062E-02  0.79582742676781767E-01
  0.12316514290466496E+03  0.13778047846847591E+00  0.16005992909484401E-01
  0.12338089842237184E+03  0.10449800489460823E+00  0.12442524329981948E-01
  0.12783947608366456E+03  0.81740445044817728E-01  0.69541925983545774E-02
  0.18072655993870349E+02  0.16117934035639785E-02  0.12540671545506490E-01
  0.22742301566456824E+02  0.30483151677666576E-02  0.25627764672455342E-01
  0.32630825932377746E+02  0.90742982888445973E-02  0.10116751214892575E+00
  0.12378591382804458E+03  0.77107716049808706E-01  0.95880012319655757E-02
  0.12391304290329293E+03  0.68158365318608236E-01  0.85568936844405974E-02
  0.12739686185739210E+03  0.46931204107041213E-01  0.48517584211186775E-02
  0.14748806118673812E+02  0.10104242029758625E-02  0.75425647142288365E-02
  0.18848347206482213E+02  0.17949239876109239E-02  0.14094065425138906E-01
  0.26584595478788827E+02  0.80402841427361371E-02  0.74391177935343666E-01
  0.12444541649815156E+03  0.46783564623395134E-01  0.61262154630565115E-02
  0.12448223147023351E+03  0.44663005477806599E-01  0.58622522498008364E-02
  0.12700021028744203E+03  0.30691814893567697E-01  0.35680667553945398E-02
  0.19525358638145381E+02  0.18434988378966755E-02  0.14614199268890916E-01
  0.19525638658692138E+02  0.18435176386160301E-02  0.14614415350503198E-01
  0.26687007759896357E+02  0.80341546576793745E-02  0.74504706658088241E-01
  0.12391765378259674E+03  0.67850233809005178E-01  0.85215766271648438E-02
  0.12391772929576229E+03  0.67845327027936123E-01  0.85210151211611226E-02
  0.12757728577655134E+03  0.56822288726228881E-01  0.54933185389440652E-02
  0.22250595305225474E+02  0.28142127921229128E-02  0.23404251325239898E-01
  0.22328871537205558E+02  0.28342417971421105E-02  0.23608556165929696E-01
  0.31516867354808351E+02  0.83278869132134489E-02  0.88956762967589295E-01
  0.12320887634412071E+03  0.12919674929911568E+00  0.15094719952570227E-01
  0.12326133679663403E+03  0.11937496618196529E+00  0.14028763494145139E-01
  0.12806416536254920E+03  0.10395339826524133E+00  0.78631560738728415E-02
  0.24555792696588327E+02  0.43498989901095096E-02  0.38035213759285431E-01
  0.25305990051384484E+02  0.52098091949411684E-02  0.46532852884672800E-01
  0.36731562062020210E+02  0.75686368427621579E-02  0.10255901931736271E+00
  0.12247151677565269E+03  0.23063925418412959E+00  0.23723661516146612E-01
  0.12264962638156763E+03  0.24456152102517617E+00  0.25906681151701739E-01
  0.12847219453409477E+03  0.15950718955594545E+00  0.97414592326330440E-02
  0.26267080941925588E+02  0.83046180213488825E-02  0.76318079495730981E-01
  0.28272361010609814E+02  0.79739096046881602E-02  0.76991837776820157E-01
  0.41653125735038607E+02  0.35465696388570144E-02  0.62457944333936574E-01
  0.12183430778473057E+03  0.20523470504089047E+00  0.19750051256297509E-01
  0.12211967928339875E+03  0.22484509298607427E+00  0.22333814921396123E-01
  0.12877264075957586E+03  0.21689487623482434E+00  0.11392747175883499E-01
  0.27425503427545362E+02  0.83979646694474341E-02  0.79327887081158135E-01
  0.30880393079763415E+02  0.86813573956797431E-02  0.90651086250956414E-01
  0.46038925194573629E+02  0.27089530806935071E-02  0.65046096945342011E-01
  0.12137250917914089E+03  0.20265203792479550E+00  0.18517418032538188E-01
  0.12164893174904550E+03  0.20510831762896234E+00  0.19305653522342748E-01
  0.12899150933182048E+03  0.28485992852683134E+00  0.13462452578766219E-01
  0.28193635492936671E+02  0.79414637086340639E-02  0.76502035334949453E-01
  0.32882479150816600E+02  0.90544459073120566E-02  0.10184964769521623E+00
  0.49752306965738455E+02  0.23182698085165016E-02  0.85794481595532240E-01
  0.12109717774287631E+03  0.19464282817462239E+00  0.17333228034555313E-01
  0.12120670427341250E+03  0.19775173996445883E+00  0.17789543549751603E-01
  0.12917111694213474E+03  0.38873584068175238E+00  0.16629507594293477E-01
  0.28736995903861608E+02  0.83092156299876124E-02  0.81288997579626515E-01
  0.34199634532733270E+02  0.94951755470961009E-02  0.11299234800515127E+00
  0.52633959358978110E+02  0.16708683509641697E-02  0.11162243948987328E+00
  0.12081370309336921E+03  0.19104903533670903E+00  0.16586753698386476E-01
  0.12097495789067987E+03  0.19231719513428425E+00  0.16937208242512335E-01
  0.12932397004854963E+03  0.68278230964503361E+00  0.26851237950260409E-01
  0.29129096186249544E+02  0.83197258362244664E-02  0.82293451938267217E-01
  0.34897386020093400E+02  0.95905090229329824E-02  0.11794330233240238E+00
  0.54487195676645108E+02  0.58627554401296926E-03  0.66646609103530582E-01
  0.12055558354531077E+03  0.18945451832553126E+00  0.16077501065674148E-01
  0.12096013127542881E+03  0.19212069211791680E+00  0.16897396440452579E-01
  0.12941772781405749E+03  0.74477105260665266E+00  0.28075239313234798E-01
  0.29325469920278472E+02  0.82427810960110596E-02  0.82014089825824366E-01
  0.35114359112194812E+02  0.98547607795699127E-02  0.12251504433008881E+00
  0.55133597422720698E+02  0.37531164416398569E-03  0.55561679387710429E-01
  0.12053140328301566E+03  0.18911191354450022E+00  0.16013563233992660E-01
  0.12101946624794378E+03  0.19302112252250464E+00  0.17067725502894968E-01
  0.12940221504334065E+03  0.75443445646916607E+00  0.28539325583976628E-01
  0.29204271756620088E+02  0.82928772518014032E-02  0.82209899248600532E-01
  0.34984754304633526E+02  0.96857799792992513E-02  0.11963541380811478E+00
  0.54481455938677762E+02  0.58837359868689129E-03  0.66783141599230308E-01
  0.12078265266300347E+03  0.19093623243494548E+00  0.16531856962677546E-01
  0.12114227905733992E+03  0.19583883712741357E+00  0.17512567835189445E-01
  0.12924720513093177E+03  0.46722458793432414E+00  0.19149136979844005E-01
  0.28630657778734484E+02  0.82485512186596041E-02  0.80459702488884136E-01
  0.34572878532200633E+02  0.94259841926659024E-02  0.11405380676893143E+00
  0.52562118467906927E+02  0.17505382031739664E-02  0.11513265111451278E+00
  0.12126124553914538E+03  0.19945361169287640E+00  0.18033912044841446E-01
  0.12133841158926326E+03  0.20177270022473107E+00  0.18376790288740907E-01
  0.12896345722849071E+03  0.27551877012342724E+00  0.13193392850622092E-01
  0.27505913318968574E+02  0.84140847034130106E-02  0.79628764681070566E-01
  0.33824940011906783E+02  0.91257618707374036E-02  0.10682765309721200E+00
  0.49525484621863669E+02  0.25514235188250516E-02  0.93904232112864930E-01
  0.12162925353013235E+03  0.20525327945544172E+00  0.19275693782615625E-01
  0.12185672358239677E+03  0.20587599766034190E+00  0.19866617710179734E-01
  0.12860104039599702E+03  0.19050391189123062E+00  0.10928820198282396E-01
  0.25792564755776958E+02  0.60594344390179520E-02  0.54812229299053841E-01
  0.32547448117258881E+02  0.90405731085891287E-02  0.10049455930863870E+00
  0.45623891930051428E+02  0.27572592802373804E-02  0.64432186972367494E-01
  0.12203451972799975E+03  0.21712397731460273E+00  0.21388110616135474E-01
  0.12245731109421646E+03  0.23149495144978469E+00  0.23765677837075606E-01
  0.12822782720546013E+03  0.13188431708393444E+00  0.91050037405364971E-02
  0.23529908120834197E+02  0.37045206114686160E-02  0.31673656265700539E-01
  0.30426785487509232E+02  0.86535765638481137E-02  0.89151418439931435E-01
  0.41218816000687426E+02  0.39301815806141553E-02  0.69572822904074252E-01
  0.12255615856653360E+03  0.22963826331554799E+00  0.23935783346535833E-01
  0.12299998342542165E+03  0.21494771504106075E+00  0.23993421115632432E-01
  0.12789756378810421E+03  0.89345847382998084E-01  0.73640952566797315E-02
  0.20859176048968017E+02  0.23590585505307818E-02  0.19171875242275031E-01
  0.27146064545382092E+02  0.80609522874168140E-02  0.75615338298557572E-01
  0.36768093599911985E+02  0.74745418438104602E-02  0.10151236968999640E+00
  0.12316335757382674E+03  0.13814173870733412E+00  0.16043803643418692E-01
  0.12347817678152650E+03  0.96062074279410811E-01  0.11575430856069390E-01
  0.12762711505774716E+03  0.61249802846373373E-01  0.58023965931063223E-02
  0.24617871657150456E+02  0.44038106140792546E-02  0.38566828587059725E-01
  0.24618146387181739E+02  0.44040304604596138E-02  0.38569019200218324E-01
  0.34634464235637658E+02  0.94141462839994732E-02  0.11425362443479087E+00
  0.12248932527708223E+03  0.22974874907525225E+00  0.23692440245211228E-01
  0.12248940888522114E+03  0.22974511762396091E+00  0.23692356051670468E-01
  0.12865739208151282E+03  0.19597493790202022E+00  0.10985528287298206E-01
  0.26666458996676983E+02  0.80493998945525575E-02  0.74612663815049010E-01
  0.27061419797395782E+02  0.79416409176954611E-02  0.74327492192686820E-01
  0.38564002831441506E+02  0.53243880500534416E-02  0.80159804418021230E-01
  0.12170399635530354E+03  0.20463277209464337E+00  0.19384583523723756E-01
  0.12174979246932919E+03  0.20439022988892699E+00  0.19467078489033458E-01
  0.12914489711321630E+03  0.38511561000695738E+00  0.16649981932471518E-01
  0.28197495400202765E+02  0.79425158719187636E-02  0.76520753177233419E-01
  0.29931684322822914E+02  0.82689014484805777E-02  0.83898852041001143E-01
  0.42380390252932969E+02  0.32705045423432793E-02  0.59821227365966893E-01
  0.12097497342417803E+03  0.19231740501800018E+00  0.16937250188215017E-01
  0.12109182385969834E+03  0.19451203394916058E+00  0.17313021763738431E-01
  0.12944496875101672E+03  0.69212205862546783E+00  0.26072925087918798E-01
  0.29229066402017633E+02  0.82825137056063841E-02  0.82168286280416961E-01
  0.32959319924797995E+02  0.90168239429953209E-02  0.10171090308456079E+00
  0.45762419805898126E+02  0.27551439705617961E-02  0.65070983106761293E-01
  0.12038757999709854E+03  0.18597167820135543E+00  0.15539575223505587E-01