 2102

    1
0.0000000000e+00 0.0000000000e+00 0.0000000000e+00
0.0000000000e+00 0.0000000000e+00 0.0000000000e+00
     1      1      1
 1  1  1     2.2756557140e-08
 1  1  2    -4.4999473396e-01
 1  1  3    -3.1819432894e-01
 1  2  1    -4.4999473396e-01
 1  2  2    -3.1081941116e-09
 1  2  3     3.7807985928e-09
 1  3  1    -3.1819432894e-01
 1  3  2     3.7807985928e-09
 1  3  3    -4.4773250751e-09
 2  1  1    -4.4999473396e-01
 2  1  2    -3.1081941116e-09
 2  1  3     3.7807985928e-09
 2  2  1    -3.1081941116e-09
 2  2  2     4.4999474394e-01
 2  2  3    -3.1819433334e-01
 2  3  1     3.7807985928e-09
 2  3  2    -3.1819433334e-01
 2  3  3    -1.8763576636e-09
 3  1  1    -3.1819432894e-01
 3  1  2     3.7807985928e-09
 3  1  3    -4.4773250751e-09
 3  2  1     3.7807985928e-09
 3  2  2    -3.1819433334e-01
 3  2  3    -1.8763576636e-09
 3  3  1    -4.4773250751e-09
 3  3  2    -1.8763576636e-09
 3  3  3     6.3638866827e-01

    2
0.0000000000e+00 0.0000000000e+00 0.0000000000e+00
0.0000000000e+00 0.0000000000e+00 0.0000000000e+00
     1      1      2
 1  1  1     1.3976216305e+00
 1  1  2    -2.6179651138e-01
 1  1  3    -1.8511809053e-01
 1  2  1    -3.6130345661e-01
 1  2  2     5.2332424137e-01
 1  2  3     7.4009201877e-01
 1  3  1    -2.5548012675e-01
 1  3  2     7.4009201890e-01
 1  3  3     1.5885559022e-07
 2  1  1    -3.6130345661e-01
 2  1  2     5.2332424137e-01
 2  1  3     7.4009201877e-01
 2  2  1     3.5097315093e-01
 2  2  2    -7.4775518926e-01
 2  2  3     6.6946659211e-01
 2  3  1     7.4009202011e-01
 2  3  2     5.9910455341e-01
 2  3  3    -8.3808650557e-08
 3  1  1    -2.5548012675e-01
 3  1  2     7.4009201890e-01
 3  1  3     1.5885559010e-07
 3  2  1     7.4009202011e-01
 3  2  2     5.9910455341e-01
 3  2  3    -8.3808650452e-08
 3  3  1    -1.7235093270e-01
 3  3  2     9.9506865302e-02
 3  3  3    -1.1278473799e+00

    3
0.0000000000e+00 0.0000000000e+00 0.0000000000e+00
3.4061697305e+00 0.0000000000e+00 0.0000000000e+00
     1      1      1
 1  1  1    -1.2675626431e+00
 1  1  2     3.0761356211e-01
 1  1  3     2.1751563731e-01
 1  2  1    -1.8981993251e-02
 1  2  2     3.0923895124e-01
 1  2  3     3.4650336449e-03
 1  3  1    -1.3422295607e-02
 1  3  2     3.4650334498e-03
 1  3  3     3.0678880319e-01
 2  1  1    -1.8981993251e-02
 2  1  2     3.0923895124e-01
 2  1  3     3.4650336449e-03
 2  2  1     2.4881706539e-02
 2  2  2     2.0074567896e-01
 2  2  3    -2.0883054046e-01
 2  3  1    -7.0570253757e-02
 2  3  2    -1.0783794686e-01
 2  3  3     4.7766220661e-02
 3  1  1    -1.3422295607e-02
 3  1  2     3.4650334498e-03
 3  1  3     3.0678880319e-01
 3  2  1    -7.0570253757e-02
 3  2  2    -1.0783794686e-01
 3  2  3     4.7766220661e-02
 3  3  1     7.4782411791e-02
 3  3  2    -9.5058874496e-02
 3  3  3     2.8356239697e-01

    4
0.0000000000e+00 0.0000000000e+00 0.0000000000e+00
3.4061697305e+00 0.0000000000e+00 0.0000000000e+00
     1      1      2
 1  1  1    -3.2278165000e-01
 1  1  2     6.0404924361e-03
 1  1  3     4.2712732919e-03
 1  2  1     1.0730474935e-01
 1  2  2     1.4018985600e-02
 1  2  3    -1.9700066788e-02
 1  3  1     7.5875916130e-02
 1  3  2    -1.9700066734e-02
 1  3  3     2.7949036269e-02
 2  1  1     1.0730474935e-01
 2  1  2     1.4018985600e-02
 2  1  3    -1.9700066788e-02
 2  2  1    -1.4441809623e-02
 2  2  2     5.3227540039e-03
 2  2  3     3.4414659262e-02
 2  3  1     4.1884662696e-02
 2  3  2     6.8091964284e-03
 2  3  3    -6.0219018784e-03
 3  1  1     7.5875916130e-02
 3  1  2    -1.9700066734e-02
 3  1  3     2.7949036269e-02
 3  2  1     4.1884662696e-02
 3  2  2     6.8091964284e-03
 3  2  3    -6.0219018784e-03
 3  3  1    -4.4058738440e-02
 3  3  2     3.3018117943e-02
 3  3  3    -7.3035686345e-03

    5
0.0000000000e+00 0.0000000000e+00 0.0000000000e+00
-6.8123394610e+00 0.0000000000e+00 0.0000000000e+00
     1      1      2
 1  1  1     3.2278164257e-01
 1  1  2     6.0404925480e-03
 1  1  3     4.2712731422e-03
 1  2  1     1.0730474965e-01
 1  2  2    -1.4018985823e-02
 1  2  3     1.9700066055e-02
 1  3  1     7.5875916430e-02
 1  3  2     1.9700066108e-02
 1  3  3    -2.7949036023e-02
 2  1  1     1.0730474965e-01
 2  1  2    -1.4018985823e-02
 2  1  3     1.9700066055e-02
 2  2  1     1.4441809012e-02
 2  2  2     5.3227540039e-03
 2  2  3     3.4414659262e-02
 2  3  1    -4.1884662773e-02
 2  3  2     6.8091964284e-03
 2  3  3    -6.0219018784e-03
 3  1  1     7.5875916430e-02
 3  1  2     1.9700066108e-02
 3  1  3    -2.7949036023e-02
 3  2  1    -4.1884662773e-02
 3  2  2     6.8091964284e-03
 3  2  3    -6.0219018784e-03
 3  3  1     4.4058737758e-02
 3  3  2     3.3018117943e-02
 3  3  3    -7.3035686345e-03

    6
0.0000000000e+00 0.0000000000e+00 0.0000000000e+00
-3.4061697305e+00 0.0000000000e+00 0.0000000000e+00
     1      1      1
 1  1  1     1.2675626340e+00
 1  1  2     3.0761357691e-01
 1  1  3     2.1751564611e-01
 1  2  1    -1.8981986255e-02
 1  2  2    -3.0923895450e-01
 1  2  3    -3.4650293544e-03
 1  3  1    -1.3422291832e-02
 1  3  2    -3.4650295495e-03
 1  3  3    -3.0678880831e-01
 2  1  1    -1.8981986255e-02
 2  1  2    -3.0923895450e-01
 2  1  3    -3.4650293544e-03
 2  2  1    -2.4881708371e-02
 2  2  2     2.0074567896e-01
 2  2  3    -2.0883054046e-01
 2  3  1     7.0570255647e-02
 2  3  2    -1.0783794686e-01
 2  3  3     4.7766220661e-02
 3  1  1    -1.3422291832e-02
 3  1  2    -3.4650295495e-03
 3  1  3    -3.0678880831e-01
 3  2  1     7.0570255647e-02
 3  2  2    -1.0783794686e-01
 3  2  3     4.7766220661e-02
 3  3  1    -7.4782413522e-02
 3  3  2    -9.5058874496e-02
 3  3  3     2.8356239697e-01

    7
0.0000000000e+00 0.0000000000e+00 0.0000000000e+00
-3.4061697305e+00 0.0000000000e+00 0.0000000000e+00
     1      1      2
 1  1  1    -1.3976215973e+00
 1  1  2    -2.6179646567e-01
 1  1  3    -1.8511805535e-01
 1  2  1    -3.6130341500e-01
 1  2  2    -5.2332423203e-01
 1  2  3    -7.4009203468e-01
 1  3  1    -2.5548009400e-01
 1  3  2    -7.4009203454e-01
 1  3  3    -1.4298528206e-07
 2  1  1    -3.6130341500e-01
 2  1  2    -5.2332423203e-01
 2  1  3    -7.4009203468e-01
 2  2  1    -3.5097314258e-01
 2  2  2    -7.4775518925e-01
 2  2  3     6.6946659211e-01
 2  3  1    -7.4009203435e-01
 2  3  2     5.9910455341e-01
 2  3  3    -8.3808094504e-08
 3  1  1    -2.5548009400e-01
 3  1  2    -7.4009203454e-01
 3  1  3    -1.4298510670e-07
 3  2  1    -7.4009203435e-01
 3  2  2     5.9910455341e-01
 3  2  3    -8.3807790977e-08
 3  3  1     1.7235094621e-01
 3  3  2     9.9506865302e-02
 3  3  3    -1.1278473799e+00

    8
0.0000000000e+00 0.0000000000e+00 0.0000000000e+00
1.7030848302e+00 2.9498295366e+00 0.0000000000e+00
     1      1      1
 1  1  1     2.7158352098e-01
 1  1  2    -5.2014641642e-01
 1  1  3    -9.9243193647e-02
 1  2  1    -1.1058804305e-01
 1  2  2    -5.9333338615e-01
 1  2  3     1.8634582483e-01
 1  3  1    -1.1329144751e-01
 1  3  2    -1.2910773467e-02
 1  3  3     1.9476115898e-01
 2  1  1    -1.1058804305e-01
 2  1  2    -5.9333338615e-01
 2  1  3     1.8634582483e-01
 2  2  1    -4.5267195611e-01
 2  2  2    -8.1022646624e-01
 2  2  3     1.0792829096e-01
 2  3  1     6.1124513214e-02
 2  3  2    -7.9687944989e-03
 2  3  3     2.4180378963e-01
 3  1  1    -1.1329144751e-01
 3  1  2    -1.2910773467e-02
 3  1  3     1.9476115898e-01
 3  2  1     6.1124513214e-02
 3  2  2    -7.9687944989e-03
 3  2  3     2.4180378963e-01
 3  3  1    -4.4932195877e-02
 3  3  2     1.1229290556e-01
 3  3  3     2.8356239697e-01

    9
0.0000000000e+00 0.0000000000e+00 0.0000000000e+00
1.7030848302e+00 2.9498295366e+00 0.0000000000e+00
     1      1      2
 1  1  1     1.4271497400e-01
 1  1  2     6.3676898359e-03
 1  1  3     2.8528831027e-02
 1  2  1    -1.1608443839e-02
 1  2  2     3.7193131776e-02
 1  2  3     1.5954635508e-02
 1  3  1    -1.3164175060e-01
 1  3  2    -8.0837914273e-02
 1  3  3    -1.1955827464e-01
 2  1  1    -1.1608443839e-02
 2  1  2     3.7193131776e-02
 2  1  3     1.5954635508e-02
 2  2  1     6.8328707782e-02
 2  2  2     1.1547843840e-01
 2  2  3     1.0106005016e-02
 2  3  1    -8.0837914206e-02
 2  3  2    -3.8298170307e-02
 2  3  3    -6.9027003048e-02
 3  1  1    -1.3164175060e-01
 3  1  2    -8.0837914273e-02
 3  1  3    -1.1955827464e-01
 3  2  1    -8.0837914206e-02
 3  2  2    -3.8298170307e-02
 3  2  3    -6.9027003048e-02
 3  3  1    -5.8893130281e-02
 3  3  2    -3.4001965137e-02
 3  3  3    -4.2600739050e-02

   10
0.0000000000e+00 0.0000000000e+00 0.0000000000e+00
-5.1092546308e+00 2.9498295366e+00 0.0000000000e+00
     1      1      2
 1  1  1    -1.4271497030e-01
 1  1  2     6.3676893287e-03
 1  1  3     2.8528828421e-02
 1  2  1    -1.1608442244e-02
 1  2  2    -3.7193133981e-02
 1  2  3    -1.5954634777e-02
 1  3  1    -1.3164175695e-01
 1  3  2     8.0837915662e-02
 1  3  3     1.1955827688e-01
 2  1  1    -1.1608442244e-02
 2  1  2    -3.7193133981e-02
 2  1  3    -1.5954634777e-02
 2  2  1    -6.8328710669e-02
 2  2  2     1.1547843840e-01
 2  2  3     1.0106005016e-02
 2  3  1     8.0837916087e-02
 2  3  2    -3.8298170307e-02
 2  3  3    -6.9027003048e-02
 3  1  1    -1.3164175695e-01
 3  1  2     8.0837915662e-02
 3  1  3     1.1955827688e-01
 3  2  1     8.0837916087e-02
 3  2  2    -3.8298170307e-02
 3  2  3    -6.9027003048e-02
 3  3  1     5.8893131688e-02
 3  3  2    -3.4001965137e-02
 3  3  3    -4.2600739050e-02

   11
0.0000000000e+00 0.0000000000e+00 0.0000000000e+00
-1.7030849003e+00 2.9498295366e+00 0.0000000000e+00
     1      1      1
 1  1  1    -2.7158349878e-01
 1  1  2    -5.2014644499e-01
 1  1  3    -9.9243179309e-02
 1  2  1    -1.1058806442e-01
 1  2  2     5.9333340552e-01
 1  2  3    -1.8634583080e-01
 1  3  1    -1.1329144426e-01
 1  3  2     1.2910772076e-02
 1  3  3    -1.9476116872e-01
 2  1  1    -1.1058806442e-01
 2  1  2     5.9333340552e-01
 2  1  3    -1.8634583080e-01
 2  2  1     4.5267197384e-01
 2  2  2    -8.1022646624e-01
 2  2  3     1.0792829096e-01
 2  3  1    -6.1124516427e-02
 2  3  2    -7.9687944989e-03
 2  3  3     2.4180378963e-01
 3  1  1    -1.1329144426e-01
 3  1  2     1.2910772076e-02
 3  1  3    -1.9476116872e-01
 3  2  1    -6.1124516427e-02
 3  2  2    -7.9687944989e-03
 3  2  3     2.4180378963e-01
 3  3  1     4.4932189218e-02
 3  3  2     1.1229290556e-01
 3  3  3     2.8356239697e-01

   12
0.0000000000e+00 0.0000000000e+00 0.0000000000e+00
-1.7030849003e+00 2.9498295366e+00 0.0000000000e+00
     1      1      2
 1  1  1    -3.9225491127e-08
 1  1  2     3.4610683333e-01
 1  1  3     1.0967589108e+00
 1  2  1     5.4512072851e-01
 1  2  2    -1.5074904813e-08
 1  2  3     7.2770566877e-09
 1  3  1     1.0263968733e+00
 1  3  2     9.5124881175e-09
 1  3  3     7.9349432281e-09
 2  1  1     5.4512072851e-01
 2  1  2    -1.5075138981e-08
 2  1  3     7.2767235131e-09
 2  2  1    -1.5569278887e-08
 2  2  2     1.6729965174e+00
 2  2  3    -6.1241040931e-01
 2  3  1     8.1126247223e-09
 2  3  2    -6.8277244713e-01
 2  3  3     1.7759359674e-07
 3  1  1     1.0263968733e+00
 3  1  2     9.5129866319e-09
 3  1  3     7.9351637495e-09
 3  2  1     8.1123320820e-09
 3  2  2    -6.8277244713e-01
 3  2  3     1.7759390043e-07
 3  3  1     1.0298971098e-08
 3  3  2    -1.9901372062e-01
 3  3  3    -1.1278473799e+00

   13
0.0000000000e+00 0.0000000000e+00 0.0000000000e+00
-3.4061698006e+00 5.8996590732e+00 0.0000000000e+00
     1      1      2
 1  1  1    -1.5980209018e-02
 1  1  2    -7.6074386172e-03
 1  1  3     9.8180541588e-03
 1  2  1    -3.3591798548e-02
 1  2  2     7.2823265261e-02
 1  2  3     2.2902501565e-02
 1  3  1     3.3682089234e-02
 1  3  2    -6.6245280897e-02
 1  3  3    -8.7593983564e-03
 2  1  1    -3.3591798548e-02
 2  1  2     7.2823265261e-02
 2  1  3     2.2902501565e-02
 2  2  1     1.7475108249e-01
 2  2  2    -2.9011827082e-01
 2  2  3     2.8867877627e-02
 2  3  1    -4.6605525357e-03
 2  3  2     4.9003025169e-02
 2  3  3     2.7215526452e-02
 3  1  1     3.3682089234e-02
 3  1  2    -6.6245280897e-02
 3  1  3    -8.7593983564e-03
 3  2  1    -4.6605525357e-03
 3  2  2     4.9003025169e-02
 3  2  3     2.7215526452e-02
 3  3  1    -6.5651589568e-03
 3  3  2    -5.4665045655e-02
 3  3  3    -7.3035686345e-03

   14
0.0000000000e+00 0.0000000000e+00 0.0000000000e+00
-7.0100000804e-08 5.8996590732e+00 0.0000000000e+00
     1      1      2
 1  1  1     1.5980209709e-02
 1  1  2    -7.6074370203e-03
 1  1  3     9.8180550008e-03
 1  2  1    -3.3591792408e-02
 1  2  2    -7.2823259056e-02
 1  2  3    -2.2902502634e-02
 1  3  1     3.3682087333e-02
 1  3  2     6.6245280502e-02
 1  3  3     8.7593978125e-03
 2  1  1    -3.3591792408e-02
 2  1  2    -7.2823259056e-02
 2  1  3    -2.2902502634e-02
 2  2  1    -1.7475107600e-01
 2  2  2    -2.9011827082e-01
 2  2  3     2.8867877627e-02
 2  3  1     4.6605509883e-03
 2  3  2     4.9003025169e-02
 2  3  3     2.7215526452e-02
 3  1  1     3.3682087333e-02
 3  1  2     6.6245280502e-02
 3  1  3     8.7593978125e-03
 3  2  1     4.6605509883e-03
 3  2  2     4.9003025169e-02
 3  2  3     2.7215526452e-02
 3  3  1     6.5651603586e-03
 3  3  2    -5.4665045655e-02
 3  3  3    -7.3035686345e-03

   15
0.0000000000e+00 0.0000000000e+00 0.0000000000e+00
-1.7030848302e+00 -2.9498295366e+00 0.0000000000e+00
     1      1      1
 1  1  1     1.0595446064e-01
 1  1  2     2.6421078394e-01
 1  1  3    -1.0524480138e-01
 1  2  1     1.8124796166e-01
 1  2  2     5.3061934648e-01
 1  2  3     1.8288079700e-01
 1  3  1    -5.5176618979e-02
 1  3  2     9.4677126964e-02
 1  3  3    -1.1202764045e-01
 2  1  1     1.8124796166e-01
 2  1  2     5.3061934648e-01
 2  1  3     1.8288079700e-01
 2  2  1     9.5563802246e-01
 2  2  2     5.5780285088e-01
 2  2  3     1.1392990631e-01
 2  3  1     2.0641842017e-02
 2  3  2    -6.6083619998e-02
 2  3  3    -2.8957001280e-01
 3  1  1    -5.5176618979e-02
 3  1  2     9.4677126964e-02
 3  1  3    -1.1202764045e-01
 3  2  1     2.0641842017e-02
 3  2  2    -6.6083619998e-02
 3  2  3    -2.8957001280e-01
 3  3  1    -1.1971460699e-01
 3  3  2    -1.7234033571e-02
 3  3  3     2.8356239697e-01

   16
0.0000000000e+00 0.0000000000e+00 0.0000000000e+00
-1.7030848302e+00 -2.9498295366e+00 0.0000000000e+00
     1      1      2
 1  1  1     3.0132005093e-09
 1  1  2    -1.1198110469e-01
 1  1  3     8.9459184231e-04
 1  2  1    -7.6028838516e-02
 1  2  2     2.8195259032e-09
 1  2  3    -1.4197128202e-09
 1  3  1     8.3736217669e-03
 1  3  2     1.6402861358e-09
 1  3  3    -1.3406452324e-09
 2  1  1    -7.6028838516e-02
 2  1  2     2.8195259021e-09
 2  1  3    -1.4197128206e-09
 2  2  1     1.2994752468e-09
 2  2  2    -1.3171114875e-01
 2  2  3     3.7740242058e-02
 2  3  1     1.1474474500e-09
 2  3  2    -1.7831354870e-01
 2  3  3     1.3805400647e-01
 3  1  1     8.3736217669e-03
 3  1  2     1.6402861358e-09
 3  1  3    -1.3406452324e-09
 3  2  1     1.1474474500e-09
 3  2  2    -1.7831354870e-01
 3  2  3     1.3805400647e-01
 3  3  1    -5.0830725321e-10
 3  3  2     6.8003930650e-02
 3  3  3    -4.2600739050e-02

   17
0.0000000000e+00 0.0000000000e+00 0.0000000000e+00
1.7030849003e+00 -2.9498295366e+00 0.0000000000e+00
     1      1      1
 1  1  1    -1.0595447250e-01
 1  1  2     2.6421081182e-01
 1  1  3    -1.0524479584e-01
 1  2  1     1.8124799984e-01
 1  2  2    -5.3061935880e-01
 1  2  3    -1.8288079563e-01
 1  3  1    -5.5176619500e-02
 1  3  2    -9.4677125151e-02
 1  3  3     1.1202764335e-01
 2  1  1     1.8124799984e-01
 2  1  2    -5.3061935880e-01
 2  1  3    -1.8288079563e-01
 2  2  1    -9.5563803732e-01
 2  2  2     5.5780285088e-01
 2  2  3     1.1392990631e-01
 2  3  1    -2.0641836372e-02
 2  3  2    -6.6083619998e-02
 2  3  3    -2.8957001280e-01
 3  1  1    -5.5176619500e-02
 3  1  2    -9.4677125151e-02
 3  1  3     1.1202764335e-01
 3  2  1    -2.0641836372e-02
 3  2  2    -6.6083619998e-02
 3  2  3    -2.8957001280e-01
 3  3  1     1.1971460341e-01
 3  3  2    -1.7234033571e-02
 3  3  3     2.8356239697e-01

   18
0.0000000000e+00 0.0000000000e+00 0.0000000000e+00
1.7030849003e+00 -2.9498295366e+00 0.0000000000e+00
     1      1      2
 1  1  1    -8.6478504022e-02
 1  1  2     1.6306237741e-01
 1  1  3     4.3939569809e-02
 1  2  1     8.7782477448e-02
 1  2  2    -1.6544111400e-01
 1  2  3     3.2024358900e-03
 1  3  1     1.4469665277e-02
 1  3  2     6.4317453322e-03
 1  3  3     1.9189638364e-02
 2  1  1     8.7782477448e-02
 2  1  2    -1.6544111400e-01
 2  1  3     3.2024358900e-03
 2  2  1    -9.1974090603e-02
 2  2  2     1.2330008526e-01
 2  2  3    -5.2536381348e-03
 2  3  1    -5.5152983104e-02
 2  3  2     6.8215449158e-02
 2  3  3    -2.1193624509e-02
 3  1  1     1.4469665277e-02
 3  1  2     6.4317453322e-03
 3  1  3     1.9189638364e-02
 3  2  1    -5.5152983104e-02
 3  2  2     6.8215449158e-02
 3  2  3    -2.1193624509e-02
 3  3  1    -5.0623897963e-02
 3  3  2     2.1646927777e-02
 3  3  3    -7.3035686345e-03

   19
0.0000000000e+00 0.0000000000e+00 0.0000000000e+00
-5.1092545607e+00 -2.9498295366e+00 0.0000000000e+00
     1      1      2
 1  1  1     8.6478494949e-02
 1  1  2     1.6306236973e-01
 1  1  3     4.3939570501e-02
 1  2  1     8.7782470600e-02
 1  2  2     1.6544111011e-01
 1  2  3    -3.2024354670e-03
 1  3  1     1.4469663677e-02
 1  3  2    -6.4317472579e-03
 1  3  3    -1.9189637758e-02
 2  1  1     8.7782470600e-02
 2  1  2     1.6544111011e-01
 2  1  3    -3.2024354670e-03
 2  2  1     9.1974087747e-02
 2  2  2     1.2330008526e-01
 2  2  3    -5.2536381348e-03
 2  3  1     5.5152981781e-02
 2  3  2     6.8215449158e-02
 2  3  3    -2.1193624509e-02
 3  1  1     1.4469663677e-02
 3  1  2    -6.4317472579e-03
 3  1  3    -1.9189637758e-02
 3  2  1     5.5152981781e-02
 3  2  2     6.8215449158e-02
 3  2  3    -2.1193624509e-02
 3  3  1     5.0623897551e-02
 3  3  2     2.1646927777e-02
 3  3  3    -7.3035686345e-03

   20
0.0000000000e+00 0.0000000000e+00 0.0000000000e+00
1.7030848340e+00 9.8327650400e-01 2.7811259617e+00
     1      1      1
 1  1  1     2.7158352062e-01
 1  1  2    -2.6694951844e-01
 1  1  3    -4.5731768201e-01
 1  2  1    -1.4367488264e-01
 1  2  2     1.6170047712e-01
 1  2  3    -2.7985555397e-01
 1  3  1    -6.6499593109e-02
 1  3  2    -8.0598955752e-02
 1  3  3    -5.6027270583e-01
 2  1  1    -1.4367488264e-01
 2  1  2     1.6170047712e-01
 2  1  3    -2.7985555397e-01
 2  2  1    -5.1817451468e-02
 2  2  2     3.9383151891e-01
 2  2  3    -1.3416833351e-01
 2  3  1    -8.0598955625e-02
 2  3  2     2.6568060568e-02
 2  3  3    -3.2347360271e-01
 3  1  1    -6.6499593109e-02
 3  1  2    -8.0598955752e-02
 3  1  3    -5.6027270583e-01
 3  2  1    -8.0598955625e-02
 3  2  2     2.6568060568e-02
 3  2  3    -3.2347360271e-01
 3  3  1    -4.4578670229e-01
 3  3  2    -2.5737507684e-01
 3  3  3    -6.5434663390e-01

   21
0.0000000000e+00 0.0000000000e+00 0.0000000000e+00
1.7030848340e+00 9.8327650400e-01 2.7811259617e+00
     1      1      2
 1  1  1     1.4271497441e-01
 1  1  2     2.9019803701e-02
 1  1  3    -3.5060944950e-03
 1  2  1    -1.2798251387e-01
 1  2  2    -1.2253229903e-01
 1  2  3    -2.4366447076e-02
 1  3  1     3.2936037545e-02
 1  3  2     7.2426102831e-02
 1  3  3     4.0167156434e-02
 2  1  1    -1.2798251387e-01
 2  1  2    -1.2253229903e-01
 2  1  3    -2.4366447076e-02
 2  2  1    -9.5567181180e-02
 2  2  2    -8.9369521491e-02
 2  2  3    -1.2383312225e-02
 2  3  1    -2.2891967368e-02
 2  3  2    -2.9270509704e-02
 2  3  3     2.8581109924e-02
 3  1  1     3.2936037545e-02
 3  1  2     7.2426102831e-02
 3  1  3     4.0167156434e-02
 3  2  1    -2.2891967368e-02
 3  2  2    -2.9270509704e-02
 3  2  3     2.8581109924e-02
 3  3  1     1.0500275891e-01
 3  3  2     8.5892016666e-02
 3  3  3     1.0003164596e-01

   22
0.0000000000e+00 0.0000000000e+00 0.0000000000e+00
-5.1092546270e+00 9.8327650400e-01 2.7811259617e+00
     1      1      2
 1  1  1    -1.4271496989e-01
 1  1  2     2.9019799915e-02
 1  1  3    -3.5060945228e-03
 1  2  1    -1.2798251972e-01
 1  2  2     1.2253230157e-01
 1  2  3     2.4366446969e-02
 1  3  1     3.2936040765e-02
 1  3  2    -7.2426103344e-02
 1  3  3    -4.0167158521e-02
 2  1  1    -1.2798251972e-01
 2  1  2     1.2253230157e-01
 2  1  3     2.4366446969e-02
 2  2  1     9.5567183479e-02
 2  2  2    -8.9369521491e-02
 2  2  3    -1.2383312225e-02
 2  3  1     2.2891967662e-02
 2  3  2    -2.9270509704e-02
 2  3  3     2.8581109924e-02
 3  1  1     3.2936040765e-02
 3  1  2    -7.2426103344e-02
 3  1  3    -4.0167158521e-02
 3  2  1     2.2891967662e-02
 3  2  2    -2.9270509704e-02
 3  2  3     2.8581109924e-02
 3  3  1    -1.0500276236e-01
 3  3  2     8.5892016666e-02
 3  3  3     1.0003164596e-01

   23
0.0000000000e+00 0.0000000000e+00 0.0000000000e+00
-1.7030848965e+00 9.8327650400e-01 2.7811259617e+00
     1      1      1
 1  1  1    -2.7158349914e-01
 1  1  2    -2.6694951302e-01
 1  1  3    -4.5731771108e-01
 1  2  1    -1.4367488510e-01
 1  2  2    -1.6170048685e-01
 1  2  3     2.7985556171e-01
 1  3  1    -6.6499611096e-02
 1  3  2     8.0598958743e-02
 1  3  3     5.6027272272e-01
 2  1  1    -1.4367488510e-01
 2  1  2    -1.6170048685e-01
 2  1  3     2.7985556171e-01
 2  2  1     5.1817443997e-02
 2  2  2     3.9383151891e-01
 2  2  3    -1.3416833351e-01
 2  3  1     8.0598959545e-02
 2  3  2     2.6568060568e-02
 2  3  3    -3.2347360271e-01
 3  1  1    -6.6499611096e-02
 3  1  2     8.0598958743e-02
 3  1  3     5.6027272272e-01
 3  2  1     8.0598959545e-02
 3  2  2     2.6568060568e-02
 3  2  3    -3.2347360271e-01
 3  3  1     4.4578671762e-01
 3  3  2    -2.5737507684e-01
 3  3  3    -6.5434663390e-01

   24
0.0000000000e+00 0.0000000000e+00 0.0000000000e+00
-1.7030848965e+00 9.8327650400e-01 2.7811259617e+00
     1      1      2
 1  1  1    -4.3110618365e-08
 1  1  2     1.1494031618e+00
 1  1  3    -3.9273648313e-02
 1  2  1     1.1494031612e+00
 1  2  2     1.2449018735e-08
 1  2  3     4.6674841630e-10
 1  3  1     1.7181246398e-01
 1  3  2    -2.0407127485e-09
 1  3  3    -1.4136626037e-08
 2  1  1     1.1494031612e+00
 2  1  2     1.2449164386e-08
 2  1  3     4.6708135729e-10
 2  2  1     1.3934160851e-08
 2  2  2    -1.1494031785e+00
 2  2  3    -3.9273648856e-02
 2  3  1    -2.0410158327e-09
 2  3  2     1.7181246635e-01
 2  3  3    -5.9224867055e-09
 3  1  1     1.7181246398e-01
 3  1  2    -2.0406850536e-09
 3  1  3    -1.4136771537e-08
 3  2  1    -2.0401967072e-09
 3  2  2     1.7181246635e-01
 3  2  3    -5.9221322553e-09
 3  3  1    -1.4134453448e-08
 3  3  2    -5.9245024764e-09
 3  3  3     2.0090438841e+00

   25
0.0000000000e+00 0.0000000000e+00 0.0000000000e+00
-3.4061697968e+00 3.9331060406e+00 2.7811259617e+00
     1      1      2
 1  1  1     2.1707983514e-01
 1  1  2    -4.4216757031e-02
 1  1  3    -3.1265968981e-02
 1  2  1     1.0931927774e-02
 1  2  2    -3.8938789083e-02
 1  2  3     8.3392753494e-03
 1  3  1     7.7300401275e-03
 1  3  2     8.3392753870e-03
 1  3  3    -4.4835547033e-02
 2  1  1     1.0931927774e-02
 2  1  2    -3.8938789083e-02
 2  1  3     8.3392753494e-03
 2  2  1    -1.8838934472e-01
 2  2  2     1.1522280386e-01
 2  2  3     1.5376563112e-02
 2  3  1    -8.6978794589e-02
 2  3  2    -4.0645080498e-03
 2  3  3     2.0495223609e-02
 3  1  1     7.7300401275e-03
 3  1  2     8.3392753870e-03
 3  1  3    -4.4835547033e-02
 3  2  1    -8.6978794589e-02
 3  2  2    -4.0645080498e-03
 3  2  3     2.0495223609e-02
 3  3  1    -1.2688604975e-01
 3  3  2     4.7989050033e-02
 3  3  3     1.0003164596e-01

   26
0.0000000000e+00 0.0000000000e+00 0.0000000000e+00
-6.6299999379e-08 3.9331060406e+00 2.7811259617e+00
     1      1      1
 1  1  1     3.8794379069e-10
 1  1  2     4.6501581053e-02
 1  1  3     3.2881583408e-02
 1  2  1    -3.4757759384e-02
 1  2  2     2.1697038503e-09
 1  2  3     1.7592105123e-09
 1  3  1    -2.4577447441e-02
 1  3  2     1.6197862363e-09
 1  3  3     8.7625196554e-10
 2  1  1    -3.4757759384e-02
 2  1  2     2.1697038503e-09
 2  1  3     1.7592105123e-09
 2  2  1     2.6773448398e-09
 2  2  2    -1.4883194695e-01
 2  2  3    -1.2918978953e-01
 2  3  1     9.0187346632e-10
 2  3  2    -5.7035776549e-02
 2  3  3    -3.1862883322e-02
 3  1  1    -2.4577447441e-02
 3  1  2     1.6197862363e-09
 3  1  3     8.7625196554e-10
 3  2  1     9.0187346632e-10
 3  2  2    -5.7035776549e-02
 3  2  3    -3.1862883322e-02
 3  3  1     2.0887096400e-09
 3  3  2    -1.3390406677e-01
 3  3  3    -7.0734763707e-02

   27
0.0000000000e+00 0.0000000000e+00 0.0000000000e+00
-6.6300001045e-08 3.9331060406e+00 2.7811259617e+00
     1      1      2
 1  1  1    -2.1707983438e-01
 1  1  2    -4.4216758647e-02
 1  1  3    -3.1265969847e-02
 1  2  1     1.0931921265e-02
 1  2  2     3.8938786403e-02
 1  2  3    -8.3392760032e-03
 1  3  1     7.7300358424e-03
 1  3  2    -8.3392759657e-03
 1  3  3     4.4835545138e-02
 2  1  1     1.0931921265e-02
 2  1  2     3.8938786403e-02
 2  1  3    -8.3392760032e-03
 2  2  1     1.8838934176e-01
 2  2  2     1.1522280386e-01
 2  2  3     1.5376563112e-02
 2  3  1     8.6978794397e-02
 2  3  2    -4.0645080498e-03
 2  3  3     2.0495223609e-02
 3  1  1     7.7300358424e-03
 3  1  2    -8.3392759657e-03
 3  1  3     4.4835545138e-02
 3  2  1     8.6978794397e-02
 3  2  2    -4.0645080498e-03
 3  2  3     2.0495223609e-02
 3  3  1     1.2688604720e-01
 3  3  2     4.7989050033e-02
 3  3  3     1.0003164596e-01

   28
0.0000000000e+00 0.0000000000e+00 0.0000000000e+00
3.8000005920e-09 -1.9665530326e+00 2.7811259617e+00
     1      1      1
 1  1  1     1.0954040594e-08
 1  1  2    -1.7719906476e-01
 1  1  3     2.7406347922e-02
 1  2  1    -4.2374833091e-01
 1  2  2     1.7049966506e-09
 1  2  3     2.8020957386e-09
 1  3  1     7.3101888784e-02
 1  3  2    -2.2784668256e-09
 1  3  3    -3.0833855929e-09
 2  1  1    -4.2374833091e-01
 2  1  2     1.7049966473e-09
 2  1  3     2.8020957308e-09
 2  2  1     5.2639773177e-09
 2  2  2    -7.6564926196e-02
 2  2  3    -6.1889239040e-01
 2  3  1    -3.2085417599e-09
 2  3  2    -1.1303343739e-01
 2  3  3     6.4694721122e-01
 3  1  1     7.3101888784e-02
 3  1  2    -2.2784668307e-09
 3  1  3    -3.0833855820e-09
 3  2  1    -3.2085417789e-09
 3  2  2    -1.1303343739e-01
 3  2  3     6.4694721122e-01
 3  3  1    -1.5126146263e-09
 3  3  2     5.1475015948e-01
 3  3  3    -6.5434663390e-01

   29
0.0000000000e+00 0.0000000000e+00 0.0000000000e+00
3.8000003144e-09 -1.9665530326e+00 2.7811259617e+00
     1      1      2
 1  1  1    -2.7152546200e-03
 1  1  2    -8.7984831154e-02
 1  1  3     1.0937954779e-02
 1  2  1     1.3868805466e-02
 1  2  2     2.0103897886e-01
 1  2  3    -1.6027170682e-02
 1  3  1    -3.5167781317e-02
 1  3  2    -6.2211726373e-02
 1  3  3    -4.6683887287e-03
 2  1  1     1.3868805466e-02
 2  1  2     2.0103897886e-01
 2  1  3    -1.6027170682e-02
 2  2  1     7.8553540534e-02
 2  2  2     7.7328502446e-02
 2  2  3    -2.6827360807e-02
 2  3  1     3.3106343493e-02
 2  3  2     3.8833313119e-02
 2  3  3    -4.9076334418e-02
 3  1  1    -3.5167781317e-02
 3  1  2    -6.2211726373e-02
 3  1  3    -4.6683887287e-03
 3  2  1     3.3106343493e-02
 3  2  2     3.8833313119e-02
 3  2  3    -4.9076334418e-02
 3  3  1    -2.1883286950e-02
 3  3  2    -1.3388106758e-01
 3  3  3     1.0003164596e-01

   30
0.0000000000e+00 0.0000000000e+00 0.0000000000e+00
3.4061697343e+00 -1.9665530326e+00 2.7811259617e+00
     1      1      1
 1  1  1    -1.0165184783e-01
 1  1  2     2.3930963794e-02
 1  1  3    -8.8671946379e-02
 1  2  1     6.4560632749e-02
 1  2  2    -5.7341501169e-02
 1  2  3     7.0178962950e-02
 1  3  1    -4.8921193372e-02
 1  3  2     1.4054868752e-02
 1  3  3    -2.7594066077e-02
 2  1  1     6.4560632749e-02
 2  1  2    -5.7341501169e-02
 2  1  3     7.0178962950e-02
 2  2  1     1.3031152567e-02
 2  2  2     2.7234220454e-02
 2  2  3    -7.6362596275e-03
 2  3  1     1.4054869372e-02
 2  3  2    -3.2692030340e-02
 2  3  3     1.5931441974e-02
 3  1  1    -4.8921193372e-02
 3  1  2     1.4054868752e-02
 3  1  3    -2.7594066077e-02
 3  2  1     1.4054869372e-02
 3  2  2    -3.2692030340e-02
 3  2  3     1.5931441974e-02
 3  3  1    -1.1596432317e-01
 3  3  2     6.6952033696e-02
 3  3  3    -7.0734763707e-02

   31
0.0000000000e+00 0.0000000000e+00 0.0000000000e+00
-3.4061697267e+00 -1.9665530326e+00 2.7811259617e+00
     1      1      1
 1  1  1     1.0165184682e-01
 1  1  2     2.3930961464e-02
 1  1  3    -8.8671943820e-02
 1  2  1     6.4560632881e-02
 1  2  2     5.7341500981e-02
 1  2  3    -7.0178962993e-02
 1  3  1    -4.8921194724e-02
 1  3  2    -1.4054868917e-02
 1  3  3     2.7594066693e-02
 2  1  1     6.4560632881e-02
 2  1  2     5.7341500981e-02
 2  1  3    -7.0178962993e-02
 2  2  1    -1.3031153107e-02
 2  2  2     2.7234220454e-02
 2  2  3    -7.6362596275e-03
 2  3  1    -1.4054868819e-02
 2  3  2    -3.2692030340e-02
 2  3  3     1.5931441974e-02
 3  1  1    -4.8921194724e-02
 3  1  2    -1.4054868917e-02
 3  1  3     2.7594066693e-02
 3  2  1    -1.4054868819e-02
 3  2  2    -3.2692030340e-02
 3  2  3     1.5931441974e-02
 3  3  1     1.1596432257e-01
 3  3  2     6.6952033696e-02
 3  3  3    -7.0734763707e-02

   32
0.0000000000e+00 0.0000000000e+00 0.0000000000e+00
-3.4061697267e+00 -1.9665530326e+00 2.7811259617e+00
     1      1      2
 1  1  1     2.7152568875e-03
 1  1  2    -8.7984823350e-02
 1  1  3     1.0937953885e-02
 1  2  1     1.3868812351e-02
 1  2  2    -2.0103898125e-01
 1  2  3     1.6027172010e-02
 1  3  1    -3.5167782382e-02
 1  3  2     6.2211727334e-02
 1  3  3     4.6683884874e-03
 2  1  1     1.3868812351e-02
 2  1  2    -2.0103898125e-01
 2  1  3     1.6027172010e-02
 2  2  1    -7.8553541994e-02
 2  2  2     7.7328502446e-02
 2  2  3    -2.6827360807e-02
 2  3  1    -3.3106343725e-02
 2  3  2     3.8833313119e-02
 2  3  3    -4.9076334418e-02
 3  1  1    -3.5167782382e-02
 3  1  2     6.2211727334e-02
 3  1  3     4.6683884874e-03
 3  2  1    -3.3106343725e-02
 3  2  2     3.8833313119e-02