 128  128
1 1
    15.956502893825029     0.000000000000001    -0.000000000000000
    -0.000000000000003    15.956502893825025     0.000000000000000
    -0.000000000000003    -0.000000000000002    15.956502893825030
1 2
    -0.483112823531726     0.248247478309329     0.175537475909831
    -0.248230148654815     0.315350844734881     0.206425857508673
    -0.175525221229698     0.206425857085078     0.169385722237675
1 3
    -0.060398225791743     0.000000000000000     0.000000000000000
    -0.000000001641195     0.075937979545248     0.003019248361811
    -0.000000000980051     0.003019248360577     0.073803048574991
1 4
    -0.483112815162357    -0.248247478309329    -0.175537475909831
     0.248230126775430     0.315350838835507     0.206425853337185
     0.175525207142843     0.206425853591978     0.169385719767680
1 5
     0.115742439577051    -0.593979386274620     0.266538773984533
    -0.097501759767741    -0.283504418549406     0.048806987859108
     0.091007428753444    -0.255222227875023     0.169385722413185
1 6
    -0.017227521274336     0.002785657616299    -0.022311180606459
     0.002785657640861    -0.020444121578220    -0.012881366305161
     0.007552585538126     0.004360487391410     0.011936716396576
1 7
    -0.017227521522079    -0.002785657616299     0.022311180606459
    -0.002785657383167    -0.020444121644419    -0.012881365774956
    -0.007552586052120     0.004360487352212     0.011936716710517
1 8
     0.115742429212152     0.593979386274620    -0.266538773984533
     0.097501768568712    -0.283504404434030     0.048806981525058
    -0.091007423443138    -0.255222219517116     0.169385718662708
1 9
     0.041853928900741    -0.059035309058243     0.002614745799733
    -0.059035307413985    -0.026314175152278    -0.001509624149837
     0.002614745376169    -0.001509624887675     0.073803048580034
1 10
    -0.022052421774846    -0.000000000000000     0.000000000000000
    -0.000000000257694    -0.015619221348622     0.025762732080116
    -0.000000000135508    -0.008720975015816     0.011936716667487
1 11
     0.041853927534613     0.059035309058243    -0.002614745799733
     0.059035309055179    -0.026314173749358    -0.001509624211974
    -0.002614745789852    -0.001509624056987     0.073803048543242
1 12
    -0.022051872977251    -0.000000000000000    -0.000000000000000
    -0.000000000015184    -0.015613146305671    -0.008715878040462
    -0.000000000545278     0.025767674543479     0.011933648899572
1 13
     0.115727420041004    -0.097510434624590     0.091001298074702
    -0.593988039580223    -0.283489396881917    -0.255232839033731
     0.266532637131491     0.048796365431275     0.169385720281743
1 14
     0.115727419004240     0.097510434624590    -0.091001298074702
     0.593988052658637    -0.283489394564670    -0.255232841196293
    -0.266532639046120     0.048796366803348     0.169385719001260
1 15
    -0.017222827906607    -0.002788050418691    -0.007548171851490
    -0.002788050394819    -0.020442191361757     0.004357938930543
     0.022315460606961    -0.012883837427424     0.011933648885014
1 16
    -0.017222828079073     0.002788050418691     0.007548171851490
     0.002788050410003    -0.020442191295502     0.004357939109919
    -0.022315460711050    -0.012883837388193     0.011933648991225
1 17
     0.115742438326300     0.053302039148351    -0.648855393845247
     0.053302039865465     0.054194545465578    -0.374616841422554
    -0.122261350514281    -0.070587624816454    -0.168313240351047
1 18
    -0.017227521230101    -0.020106630290745     0.010063403330805
     0.008049198442400     0.005660991671206    -0.004869063819454
     0.000108814755100    -0.022110917485100    -0.014168396897085
1 19
    -0.017227521566314     0.020106630290745    -0.010063403330805
    -0.008049198917812     0.005660992149021    -0.004869064058601
    -0.000108814272699    -0.022110917202178    -0.014168397038688
1 20
     0.115742430462904    -0.053302039148351     0.648855393845247
    -0.053302033131588     0.054194544198904    -0.374616826003100
     0.122261356188690    -0.070587625566469    -0.168313231220978
1 21
    -0.005282157389663     0.001152539604175     0.000814968572414
    -0.027003289139164    -0.006284372151395     0.011149694851976
    -0.019094208943368     0.011149694845842    -0.014168396914922
1 22
     0.001508243907751     0.000000000000000     0.000000000000000
    -0.000000000000000     0.001508243907751     0.000000000000000
    -0.000000000000000    -0.000000000000000     0.001508243907751
1 23
    -0.005282157350807    -0.001152539604175    -0.000814968572414
     0.027003289006093    -0.006284372178784     0.011149694832609
     0.019094208803444     0.011149694829625    -0.014168396926390
1 24
    -0.070283612772638    -0.000000000000000     0.000000000000000
     0.000000000036536    -0.072448867247871    -0.001536276624220
     0.000000000025845    -0.001536276623592    -0.071362555639520
1 25
     0.005159884829056    -0.020974573683726    -0.009248434758392
     0.007181255546423    -0.016726414247920    -0.006280631013155
    -0.019203023257039     0.010961222432508    -0.014168397037116
1 26
     0.005159884200479     0.020974573683726     0.009248434758392
    -0.007181254937940    -0.016726413749479    -0.006280630793375
     0.019203023268524     0.010961222727642    -0.014168396906981
1 27
    -0.002480330921949    -0.022372240492307    -0.014994862733221
    -0.022372240473346     0.023352906480167    -0.008657288153828
     0.007290655325877     0.004209261811893    -0.018544019624409
1 28
    -0.002480331664598     0.022372240492307     0.014994862733221
     0.022372239981259     0.023352907011822    -0.008657287797489
    -0.007290655199874     0.004209262126694    -0.018544019413416
1 29
     0.023420598394254     0.000000000000000     0.000000000000000
    -0.000000006733878     0.146516377518976     0.749233667425654
    -0.000000000328503     0.141175252623286    -0.168313232472400
1 30
    -0.071907553634240     0.000937582702968    -0.001330454593009
     0.000937582667819    -0.070824926383703     0.000768138296301
    -0.001330454581499     0.000768138318376    -0.071362555642086
1 31
     0.036269525727340    -0.000000000000000     0.000000000000000
     0.000000000492086    -0.015396950351195     0.017314575951317
     0.000000000485671    -0.008418523682247    -0.018544019442336
1 32
    -0.071907553630680    -0.000937582702968     0.001330454593009
    -0.000937582704355    -0.070824926405984     0.000768138327918
     0.001330454555576     0.000768138305183    -0.071362555623366
1 33
     0.041853928819928    -0.017213230205147    -0.056530605148078
    -0.017213230140457     0.061730054349614    -0.032637960545843
    -0.056530603494061    -0.032637959689860    -0.014241180841045
1 34
    -0.022052421774846     0.000000000000000    -0.000000000000000
    -0.000000000295511     0.014230653334801    -0.019274499325635
    -0.000000000209838     0.015209207767644    -0.017913158015937
1 35
     0.041853927615427     0.017213230205147     0.056530605148078
     0.017213230127370     0.061730054758671    -0.032637959202445
     0.056530605058989    -0.032637959447652    -0.014241180045600
1 36
    -0.022051872977251     0.000000000000000     0.000000000000000
    -0.000000000538175     0.014231756530350     0.015215908061251
     0.000000000199808    -0.019267644525348    -0.017911253936449
1 37
     0.005159884818885    -0.015711032420937    -0.016692206176581
    -0.015711032105249    -0.012981653226735     0.009637249464480
     0.013171560331479    -0.007604603932430    -0.017913158048130
1 38
     0.005159884210650     0.015711032420937     0.016692206176581
     0.015711032400760    -0.012981652853377     0.009637249861155
    -0.013171559826101    -0.007604603711359    -0.017913157813253
1 39
    -0.002480330923451    -0.021594705609255    -0.016094463106838
    -0.000583717611004    -0.015286685524682     0.017870420422126
    -0.023522969003404     0.005003870512712     0.020095572381942
1 40
    -0.002480331663095     0.021594705609255     0.016094463106838
     0.000583717663880    -0.015286685011504     0.017870420804597
     0.023522968566825     0.005003870816572     0.020095572608408
1 41
     0.071668117578028     0.000000000000000     0.000000000000000
     0.000000000013088     0.031915864905098     0.065275919748288
    -0.000000000171195     0.065275919721599    -0.014241180154629
1 42
    -0.021688635843408     0.010506202109672     0.007429006781017
    -0.010504785877807     0.003921619349906    -0.022873424032879
    -0.007428005271630    -0.022873424037882     0.020095572427311
1 43
     0.032918500650751     0.000000000000000    -0.000000000000000
    -0.000000000000000     0.032918500650751    -0.000000000000000
    -0.000000000000000    -0.000000000000000     0.032918500650751
1 44
    -0.021688635489204    -0.010506202109672    -0.007429006781017
     0.010504785591055     0.003921619100236    -0.022873424209423
     0.007428005227248    -0.022873424185715     0.020095572322777
1 45
     0.005160849281069    -0.015711272614398     0.013177363013757
    -0.015711272089305    -0.012980965753385    -0.007607953874052
    -0.016686269595269     0.009633822214060    -0.017911253911034
1 46
    -0.002481557975879     0.000584425702129     0.023523469887855
     0.021595413601144    -0.015285458713048     0.005003003787296
     0.016094963257431     0.017869553194939     0.020095572622736
1 47
    -0.002481557630991    -0.000584425702129    -0.023523469887855
    -0.021595413367268    -0.015285458726937     0.005003003228283
    -0.016094963999769     0.017869553186715     0.020095572291736
1 48
     0.005160849093125     0.015711272614398    -0.013177363013757
     0.015711272627481    -0.012980965380021    -0.007607954187200
     0.016686269690979     0.009633822435133    -0.017911254096453
1 49
     0.115727419749603     0.053293368755296    -0.122267485299223
     0.053293368886048     0.054189539611745    -0.070591166515597
    -0.648861506448224    -0.374620370786969    -0.168293215920518
1 50
     0.115727419295641    -0.053293368755296     0.122267485299223
    -0.053293366430366     0.054189538345277    -0.070591163610023
     0.648861519347200    -0.374620371536862    -0.168293214200088
1 51
    -0.017222827896447    -0.008045834806777    -0.000112541883558
     0.020109867859932     0.005656901973295    -0.022111260291835
    -0.010067085917936    -0.004869483911806    -0.014165444460198
1 52
    -0.017222828089233     0.008045834806777     0.000112541883558
    -0.020109868092519     0.005656902164497    -0.022111260289160
     0.010067085990634    -0.004869483798593    -0.014165444458615
1 53
     0.023420598394254     0.000000000000000     0.000000000000000
    -0.000000002455682     0.146496359482476     0.141182330125620
    -0.000000007553704     0.749240744563927    -0.168293214435900
1 54
    -0.071907553630608    -0.000941837055704     0.001327446311330
    -0.000941837057087    -0.070820013902658     0.000766401495657
     0.001327446273989     0.000766401472961    -0.071367468126763
1 55
     0.036269525727340    -0.000000000000000    -0.000000000000000
     0.000000000673147    -0.015398585622207    -0.008417945530084
     0.000000000179891     0.017315154099843    -0.018542384171325
1 56
    -0.071907553634311     0.000941837055704    -0.001327446311330
     0.000941837020459    -0.070820013880276     0.000766401464112
    -0.001327446299801     0.000766401486214    -0.071367468145441
1 57
     0.005160849236823     0.007186646176199    -0.019205184195372
    -0.020969056468913    -0.016726775123152     0.010958165787574
    -0.009250639601375    -0.006283610290259    -0.014165444497021
1 58
    -0.002481558017981     0.022372948683990    -0.007290154727106
     0.022372948016696     0.023352498137175     0.004208972678420
     0.014995363491082    -0.008657576764357    -0.018542384185385
1 59
    -0.002481557588889    -0.022372948683990     0.007290154727106
    -0.022372948689843     0.023352497605502     0.004208972851664
    -0.014995363059350    -0.008657577079167    -0.018542384082805
1 60
     0.005160849137371    -0.007186646176199     0.019205184195372
     0.020969056834859    -0.016726775293936     0.010958166243968
     0.009250640022640    -0.006283610391383    -0.014165444226785
1 61
    -0.005286909722809    -0.027001073608946    -0.019092642311814
     0.001154629313404    -0.006279016164886     0.011153094047867
     0.000816446196744     0.011153094080200    -0.014165444495655
1 62
    -0.070276244017581    -0.000000000000000     0.000000000000000
     0.000000000036628    -0.072451323499566    -0.001532802959769
     0.000000000025890    -0.001532802959142    -0.071367468142881
1 63
    -0.005286910633118     0.027001073608946     0.019092642311814
    -0.001154629446763    -0.006279015523230     0.011153094501586
    -0.000816446336857     0.011153094460133    -0.014165444227002
1 64
     0.001510921523455     0.000000000000000     0.000000000000000
    -0.000000000000000     0.001510921523455     0.000000000000000
    -0.000000000000000    -0.000000000000000     0.001510921523455
1 65
    -5.908421658417334     2.260782941815290     1.598614954274621
     2.260782890756621    -3.297894323248752    -0.922960748807892
     1.598614922867424    -0.922960751519553    -2.645262527438295
1 66
    -0.056226218797269    -0.126023397620553    -0.089111999342559
    -0.106304846456649    -0.066595293841581    -0.029549501383481
    -0.075168877979269    -0.029549501199207    -0.045700641111184
1 67
    -0.056226223045998     0.126023397620553     0.089111999342559
     0.106304847118853    -0.066595290846750    -0.029549499265816
     0.075168878533380    -0.029549499425927    -0.045700639857286
1 68
    -5.908421582197722    -2.260782941815290    -1.598614954274621
    -2.260782939806393    -3.297894376974190    -0.922960786797514
    -1.598614946850143    -0.922960783331118    -2.645262549932469
1 69
     0.118501798306549     0.006688998901376    -0.008335312569973
     0.006688998909981     0.110778007870171    -0.004812395021837
     0.009176058882359     0.005297799975888    -0.039374163881811
1 70
     0.022393059403694     0.000000000000000    -0.000000000000000
     0.000000000013274     0.023712786672181    -0.004115520419652
     0.000000000635332    -0.009540259430654    -0.051798247925544
1 71
     0.118501798348221    -0.006688998901376     0.008335312569973
    -0.006688998658717     0.110778007711213    -0.004812394823756
    -0.009176056786777     0.005297799881767    -0.039374163764525
1 72
    -1.992630719095391    -0.000000000000001     0.000000000000000
     0.000000049049775    -7.213685259487505     1.845921535605406
    -0.000000017341714     1.845921517532425    -2.645262530521483
1 73
     0.023382854877824    -0.000571458658475    -0.003564145257843
    -0.000571458667722     0.022722991204925     0.002057760167477
    -0.008262106690782     0.004770130042349    -0.051798247932418
1 74
     0.023382854814093     0.000571458658475     0.003564145257843
     0.000571458654448     0.022722991218505     0.002057760252175
     0.008262107635300     0.004770130050390    -0.051798247882267
1 75
    -0.164604106458909     0.043732846813589     0.070146617798411
     0.063451393756397     0.041782592796447    -0.062398503683547
     0.063175056629542    -0.050323407631286    -0.045700640087571
1 76
    -0.164604104432603    -0.043732846813589    -0.070146617798411
    -0.063451397782976     0.041782591757176    -0.062398505350518
    -0.063175057106748    -0.050323408246652    -0.045700641074607
1 77
     0.106916112501061     0.000000000000000     0.000000000000000
    -0.000000000251264     0.122363693574448     0.009624789845593
     0.000000001155125    -0.010595598495349    -0.039374163780601
1 78
     0.036598057097770    -0.052712726367572    -0.018965381544148
    -0.072431273366462    -0.159419570588366     0.091948004616334
    -0.011993821845427     0.079872907741713    -0.045700640259438
1 79
    -0.007947721784715    -0.000000000000000    -0.000000000000000
     0.000000000000000    -0.007947721784715     0.000000000000000
     0.000000000289710     0.000000000121412    -0.049125896045336
1 80
     0.036598055578238     0.052712726367572     0.018965381544148
     0.072431276730837    -0.159419569335696     0.091948005067029
     0.011993821105349     0.079872908483436    -0.045700639992575
1 81
     0.118501798330351    -0.005628941780104     0.009084886151367
     0.010880937853107    -0.022538041468845     0.052432140818929
     0.003247762288873     0.042321945800286     0.093941885433402
1 82
     0.022393059403694    -0.000000000000000     0.000000000000000
     0.000000000722332    -0.047699730650119     0.015707877963831
    -0.000000000231548     0.021132616970094     0.019614269396757
1 83
     0.118501798324419     0.005628941780104    -0.009084886151367
    -0.010880935239199    -0.022538041335078     0.052432140603035
    -0.003247762949031     0.042321945879491     0.093941885305568
1 84
    -1.992630719095392     0.000000000000000     0.000000000000000
     0.000000000000000    -1.992630719095391     0.000000000000000
     0.000000041324436     0.000000017318248    -7.866317070913597
1 85
    -0.006095225881518    -0.019932259056141    -0.014094235589923
    -0.019932259038430     0.016920563721813    -0.008137310823098
    -0.014094235524464    -0.008137310792536     0.022674511349546
1 86
    -0.006095226553510     0.019932259056141     0.014094235589923
     0.019932258605981     0.016920564195485    -0.008137310488161
     0.014094235313020    -0.008137310512068     0.022674511547867
1 87
     0.014996100342066    -0.070639980244222    -0.049950009219993
    -0.054130101848269     0.080967657143474    -0.018348328805798
    -0.038275762069509    -0.018348328701777     0.093941884809369
1 88
     0.014996097960523     0.070639980244222     0.049950009219993
     0.054130100538695     0.080967658822169    -0.018348327618782
     0.038275761394691    -0.018348327707799     0.093941885512217
1 89
     0.028428459010741    -0.000000000000000     0.000000000000000
     0.000000000432449    -0.017603121341584     0.016274621311259
    -0.000000000152894     0.016274621151918     0.022674511520684
1 90
    -0.030176532645591    -0.030351068553950    -0.013603421450233
    -0.030351068535730     0.004869861564343    -0.007853939143552
    -0.018301383504197    -0.010566308841291     0.019614269231579
1 91
    -0.017600238129821     0.000000000000000     0.000000000000000
    -0.000000000479116     0.013979089851808     0.014766366015578
    -0.000000000090332    -0.032707516729076     0.050477789753520
1 92
    -0.030176533558271     0.030351068553950     0.013603421450233
     0.030351067813398     0.004869862285608    -0.007853938820279
     0.018301383054687    -0.010566308414220     0.019614269422993
1 93
     0.010447739040827    -0.051504104349535    -0.040865123068626
    -0.068013982632002     0.085516018427191    -0.034083812984254
    -0.035027999488735    -0.023973618403990     0.093941884826890
1 94
     0.006084257961562    -0.013674250284322     0.012788048179445
    -0.013674249818062    -0.009705406264239    -0.007383182855841
    -0.028325540640104     0.016353758037079     0.050477789778184
1 95
     0.006084257816547     0.013674250284322    -0.012788048179445
     0.013674250297178    -0.009705405939283    -0.007383183159737
     0.028325539626808     0.016353758229489     0.050477789598243
1 96
     0.010447737241865     0.051504104349535     0.040865123068626
     0.068013981327667     0.085516019651139    -0.034083812013132
     0.035027998883596    -0.023973617679274     0.093941885401905
1 97
     0.023382854883581    -0.003550794595325     0.000649272018601
    -0.007980074987890    -0.041372311533735     0.027431241439902
     0.002215259089317     0.024718871558605     0.012297054800485
1 98
     0.023382854808336     0.003550794595325    -0.000649272018601
     0.007980076140751    -0.041372311449353     0.027431241424473
    -0.002215259520750     0.024718871608569     0.012297054791349
1 99
    -0.164604106530366     0.080712481035124     0.017849517703577
     0.080712478937305    -0.071405359734458    -0.010305423567759
     0.038764196202070    -0.022380519760330     0.067487312514790
1 100
    -0.164604104361146    -0.080712481035124    -0.017849517703577
    -0.080712481007080    -0.071405361652516    -0.010305423991936
    -0.038764198935984    -0.022380520896039     0.067487312263629
1 101
     0.028428459010741     0.000000000000000    -0.000000000000000
    -0.000000000000000     0.028428459010741    -0.000000000000000
     0.000000000364338     0.000000000152687    -0.023357068831642
1 102
    -0.030176532659907    -0.022942451517425    -0.024080788111091
    -0.027371732702141     0.012187076303403    -0.013153334944033
    -0.022514800653123    -0.010440965164887     0.012297054506834
1 103
    -0.017600238129821     0.000000000000000    -0.000000000000000
    -0.000000000396934     0.040784019056039    -0.042184490260243
    -0.000000000353226     0.005289392495622     0.023672860549289
1 104
    -0.030176533543955     0.022942451517425     0.024080788111091
     0.027371731880489     0.012187076848610    -0.013153334371775
     0.022514800303596    -0.010440964842063     0.012297054845676
1 105
    -0.020190506032497    -0.033137167734558    -0.023431516092490
    -0.028707886491261     0.002201049674741    -0.014277907052697
    -0.020299541212653    -0.014277907001582     0.012297054508087
1 106
     0.013738310564466     0.004009964919660     0.002835473396459
     0.004009964916097     0.009108002045612     0.001637061351104
     0.002835473383290     0.001637061344955     0.007950424870251
1 107
     0.013738310699657    -0.004009964919660    -0.002835473396459
    -0.004009964829097     0.009108001950319     0.001637061283721
    -0.002835473340752     0.001637061288531     0.007950424830353
1 108
    -0.020190507149677     0.033137167734558     0.023431516092490
     0.028707886160051     0.002201050462216    -0.014277906495869
     0.020299541094820    -0.014277906535308     0.012297054837792
1 109
     0.026187955223709    -0.025281124965157    -0.036532840463536
    -0.025281124524984    -0.003004174227032     0.021092244696037
     0.004580748171026    -0.002644696479107     0.023672860478830
1 110
     0.006792847688158     0.000000000000000    -0.000000000000000
    -0.000000000087000     0.016053464956349    -0.003274122634825
     0.000000000030759    -0.003274122602769     0.007950424835822
1 111
     0.026187954108871     0.025281124965157     0.036532840463536
     0.025281124921919    -0.003004173626249     0.021092245564206
    -0.004580748072788    -0.002644696123375     0.023672860992885
1 112
    -0.024805988362930    -0.000000000000000     0.000000000000000
     0.000000002069775    -0.211203477867468     0.020610847559695
    -0.000000001181184     0.044761039015629     0.067487312480364
1 113
     0.106916112501061    -0.000000000000000     0.000000000000000
     0.000000001244498    -0.021708386764171     0.040341573526390
    -0.000000000703994     0.060561961846902     0.104697916558018
1 114
     0.036598057064416    -0.035451641854519    -0.043376241292426
    -0.035451641182209    -0.004337973957695     0.025043283898151
    -0.064290919378903     0.037118380845401    -0.200782236856755
1 115
    -0.007947721784715    -0.000000000000000     0.000000000000000
     0.000000000343869    -0.044550543387868     0.012941051685721
    -0.000000000121576     0.012941051559018    -0.012523074442184
1 116
     0.036598055611592     0.035451641854519     0.043376241292426
     0.035451641802631    -0.004337973115219     0.025043284928948
     0.064290921837006     0.037118381344243    -0.200782236246406
1 117
     0.010447739048927    -0.055696042186757    -0.034936827743929
    -0.055696042142217     0.074759987112179    -0.020170787178316
    -0.052448197890272    -0.030280981589923     0.104697916133802
1 118
     0.006084257920649     0.007498604067776    -0.017154889511923
    -0.031263659149849     0.046609947894192    -0.003556726197365
    -0.003450359561389    -0.027293667077374    -0.005837564339334
1 119
     0.006084257857459    -0.007498604067776     0.017154889511923
     0.031263658236840     0.046609947715995    -0.003556725789695
     0.003450360377750    -0.027293667182887    -0.005837564097947
1 120
     0.010447737233765     0.055696042186757     0.034936827743929
     0.055696040897719     0.074759988435745    -0.020170786348074
     0.052448197283674    -0.030280980806222     0.104697916625399
1 121
     0.026187955257697    -0.042870533917336    -0.011657659841945
    -0.004108270664048     0.026506250546542    -0.013078207155523
    -0.025362188919841     0.010658734109464    -0.005837564328732
1 122
     0.006792847688158     0.000000000000000    -0.000000000000000
    -0.000000000000000     0.006792847688158     0.000000000000000
    -0.000000000073297    -0.000000000030717     0.017211042104013
1 123
     0.026187954074883     0.042870533917336     0.011657659841945
     0.004108270840508     0.026506251565321    -0.013078206878489
     0.025362189117179     0.010658734712697    -0.005837564164696
1 124
    -0.024805988362930     0.000000000000000    -0.000000000000000
    -0.000000000620422     0.057066071385993    -0.050086568827099
     0.000000002120169    -0.074236760270982    -0.200782236773097
1 125
     0.046769095839097     0.007774256728860     0.005497229669977
    -0.030988005601006     0.005925109756841     0.016634933075854
    -0.021911829047915     0.016634933058431    -0.005837564120431
1 126
     0.046769096101197    -0.007774256728860    -0.005497229669977
     0.030988006337556     0.005925109572092     0.016634932945218
     0.021911829392831     0.016634932949039    -0.005837564197782
1 127
    -0.035399837691289    -0.015849486739225    -0.011207279588972
    -0.015849486725141    -0.017098427345211    -0.006470525976026
    -0.011207279536922    -0.006470525951724    -0.012523074578267
1 128
    -0.035399838225636     0.015849486739225     0.011207279588972
     0.015849486381272    -0.017098426968562    -0.006470525709695
     0.011207279368788    -0.006470525728705    -0.012523074420569
2 1
    -0.483112815357426    -0.248247477976117    -0.175537475961071
     0.248230126979515     0.315350838455903     0.206425853049840
     0.175525207310464     0.206425853285696     0.169385719592157
2 2
    15.956502895036262    -0.000000000699310     0.000000015387345
    -0.000000000699306    15.956502892613795    -0.000000026651665
     0.000000015387342    -0.000000026651666    15.956502893825030
2 3
    -0.483112823410002     0.248247478018463     0.175537475029310
    -0.248230148488416     0.315350844377035     0.206425856742576
    -0.175525221088724     0.206425856794181     0.169385721723623
2 4
    -0.060398225796327     0.000000000002647    -0.000000000058244
    -0.000000001641611     0.075937979534441     0.003019248234974
    -0.000000000909012     0.003019248237077     0.073803048569949
2 5
     0.115742428937875     0.593979386669651    -0.266538774865025
     0.097501768635604    -0.283504404498304     0.048806982092611
    -0.091007423275517    -0.255222219776674     0.169385719001237
2 6
     0.115742439868900    -0.593979386679795     0.266538775088253
    -0.097501759715651    -0.283504418605134     0.048806988238613
     0.091007428934881    -0.255222228142558     0.169385722927237
2 7
    -0.017227521297281     0.002785657654108    -0.022311180627725
     0.002785657629547    -0.020444121555275    -0.012881366268327
     0.007552585550019     0.004360487370810     0.011936716396576
2 8
    -0.017227521501749    -0.002785657652598     0.022311180594499
    -0.002785657394905    -0.020444121621230    -0.012881365743495
    -0.007552586041374     0.004360487332275     0.011936716695951
2 9
    -0.022051872978925     0.000000000000966    -0.000000000021265
    -0.000000000022905    -0.015613146289928    -0.008715878014384
    -0.000000000534900     0.025767674521591     0.011933648856533
2 10
     0.041853928909027    -0.059035309059963     0.002614745938699
    -0.059035307418768    -0.026314175145172    -0.001509624162815
     0.002614745447604    -0.001509625010946     0.073803048585077
2 11
    -0.022052421776520     0.000000000000966    -0.000000000021266
    -0.000000000232165    -0.015619221390467     0.025762732106205
    -0.000000000123615    -0.008720975035091     0.011936716682053
2 12
     0.041853927532682     0.059035309056294    -0.002614745857977
     0.059035309059358    -0.026314173747427    -0.001509624111093
    -0.002614745718814    -0.001509624180029     0.073803048543242
2 13
    -0.017222828073223     0.002788050406626     0.007548171830225
     0.002788050415314    -0.020442191301351     0.004357939146751
    -0.022315460700671    -0.012883837406169     0.011933648991225
2 14
     0.115727420141817    -0.097510434774257     0.091001298349170
    -0.593988039859016    -0.283489396408058    -0.255232839133028
     0.266532637312928     0.048796365132970     0.169385720457266
2 15
     0.115727418920996     0.097510434764113    -0.091001298125971
     0.593988052470021    -0.283489394142876    -0.255232840149989
    -0.266532638905147     0.048796366528405     0.169385718662731
2 16
    -0.017222827915071    -0.002788050405117    -0.007548171863442
    -0.002788050389932    -0.020442191367362     0.004357938961999
     0.022315460620727    -0.012883837447356     0.011933648928053
2 17
     0.115742431099737    -0.053302040233141     0.648855394045889
    -0.053302033499264     0.054194544822837    -0.374616826145020
     0.122261356038755    -0.070587625285341    -0.168313230985177
2 18
     0.115742437707038     0.053302040222996    -0.648855393822661