   0.14521E+01   0.22954E-03   0.31790E-04
   0.29042E+01   0.38865E-03   0.53844E-04
   0.43562E+01   0.61766E-03   0.85515E-04
   0.58083E+01   0.99045E-03   0.13683E-03
   0.72604E+01   0.17441E-02   0.24027E-03
   0.87125E+01   0.29960E-02   0.41141E-03
   0.10165E+02   0.40752E-02   0.55552E-03
   0.11617E+02   0.48270E-02   0.64938E-03
   0.13069E+02   0.59245E-02   0.78535E-03
   0.14521E+02   0.75493E-02   0.98522E-03
   0.15973E+02   0.99746E-02   0.12812E-02
   0.17425E+02   0.13176E-01   0.16681E-02
   0.18877E+02   0.15369E-01   0.19107E-02
   0.20329E+02   0.18057E-01   0.21882E-02
   0.21781E+02   0.23294E-01   0.27392E-02
   0.23233E+02   0.32525E-01   0.37151E-02
   0.24685E+02   0.42067E-01   0.46442E-02
   0.26137E+02   0.76224E-01   0.81798E-02
   0.27590E+02   0.73296E-01   0.75478E-02
   0.29042E+02   0.75196E-01   0.74055E-02
   0.30494E+02   0.86355E-01   0.80989E-02
   0.31946E+02   0.94060E-01   0.83617E-02
   0.33398E+02   0.10724E+00   0.89313E-02
   0.34850E+02   0.16580E+00   0.12780E-01
   0.36302E+02   0.92976E-01   0.67080E-02
   0.37754E+02   0.91491E-01   0.61463E-02
   0.39206E+02   0.76288E-01   0.48429E-02
   0.40658E+02   0.71991E-01   0.40360E-02
   0.42110E+02   0.60494E-01   0.32789E-02
   0.43562E+02   0.58505E-01   0.29679E-02
   0.45015E+02   0.59104E-01   0.27568E-02
   0.46467E+02   0.62920E-01   0.26214E-02
   0.47919E+02   0.65505E-01   0.24024E-02
   0.49371E+02   0.87387E-01   0.23683E-02
   0.50823E+02   0.10513E+00   0.22302E-02
   0.52275E+02   0.11204E+00   0.18504E-02
   0.53727E+02   0.79477E-01   0.10868E-02
   0.55179E+02   0.52581E-01   0.56455E-03
   0.56631E+02   0.39907E-01   0.27299E-03
   0.58083E+02   0.14291E-01   0.69659E-04
   0.59535E+02   0.11514E-02   0.14697E-04
   0.60987E+02   0.15245E-03   0.31899E-05
   0.62440E+02   0.23702E-04   0.78604E-06
   0.63892E+02   0.12079E-05   0.68492E-07
   0.65344E+02   0.00000E+00   0.00000E+00
   0.66796E+02   0.00000E+00   0.00000E+00
   0.68248E+02   0.00000E+00   0.00000E+00
   0.69700E+02   0.00000E+00   0.00000E+00
   0.71152E+02   0.00000E+00   0.00000E+00
   0.72604E+02   0.00000E+00   0.00000E+00
   0.74056E+02   0.00000E+00   0.00000E+00
   0.75508E+02   0.00000E+00   0.00000E+00
   0.76960E+02   0.00000E+00   0.00000E+00
   0.78412E+02   0.00000E+00   0.00000E+00
   0.79865E+02   0.00000E+00   0.00000E+00
   0.81317E+02   0.00000E+00   0.00000E+00
   0.82769E+02   0.00000E+00   0.00000E+00
   0.84221E+02   0.00000E+00   0.00000E+00
   0.85673E+02   0.00000E+00   0.00000E+00
   0.87125E+02   0.00000E+00   0.00000E+00
   0.88577E+02   0.00000E+00   0.00000E+00
   0.90029E+02   0.00000E+00   0.00000E+00
   0.91481E+02   0.00000E+00   0.00000E+00
   0.92933E+02   0.00000E+00   0.00000E+00
   0.94385E+02   0.00000E+00   0.00000E+00
   0.95837E+02   0.00000E+00   0.00000E+00
   0.97290E+02   0.00000E+00   0.00000E+00
   0.98742E+02   0.00000E+00   0.00000E+00
   0.10019E+03   0.00000E+00   0.00000E+00
   0.10165E+03   0.00000E+00   0.00000E+00
   0.10310E+03   0.00000E+00   0.00000E+00
   0.10455E+03   0.00000E+00   0.00000E+00
   0.10600E+03   0.00000E+00   0.00000E+00
   0.10745E+03   0.00000E+00   0.00000E+00
   0.10891E+03   0.00000E+00   0.00000E+00
   0.11036E+03   0.51105E-06   0.24650E-04
   0.11181E+03   0.37963E-04   0.15721E-02
   0.11326E+03   0.43600E-02   0.12281E+00
   0.11471E+03   0.59846E-02   0.14567E+00
   0.11617E+03   0.80972E-02   0.15423E+00
   0.11762E+03   0.10365E-01   0.16169E+00
   0.11907E+03   0.12939E-01   0.16998E+00
   0.12052E+03   0.15962E-01   0.18178E+00
   0.12197E+03   0.14699E-01   0.14775E+00
   0.12343E+03   0.85806E-02   0.78758E-01
   0.12488E+03   0.57880E-02   0.49366E-01
   0.12633E+03   0.44428E-02   0.35389E-01
   0.12778E+03   0.71259E-02   0.17063E+00
   0.12924E+03   0.12476E-01   0.29626E+00
   0.13069E+03   0.12758E-01   0.20435E+00
   0.13214E+03   0.10106E-02   0.41070E-01
   0.13359E+03   0.11205E-05   0.35011E-04
   0.13504E+03   0.00000E+00   0.00000E+00
   0.13650E+03   0.00000E+00   0.00000E+00
   0.13795E+03   0.00000E+00   0.00000E+00
   0.13940E+03   0.00000E+00   0.00000E+00
   0.14085E+03   0.00000E+00   0.00000E+00
   0.14230E+03   0.00000E+00   0.00000E+00
   0.14376E+03   0.00000E+00   0.00000E+00
   0.14521E+03   0.00000E+00   0.00000E+00
