 128  128
1 1
    18.755972350934101    -0.000000002496601     0.000000003425305
    -0.000000002496601    18.755972349070188     0.000000001741524
     0.000000003425305     0.000000001741524    18.755972350220375
1 2
    -1.226597826308684     0.253598253333782     0.179321036822271
    -0.253598242415733     0.468891728290784     0.254546362903129
    -0.179321063165377     0.254546373255533     0.288900285728553
1 3
    -0.123195855928436    -0.000000000583449     0.000000000090119
     0.000000001793109     0.077131486272009     0.012776533182795
    -0.000000000199068     0.012776534974649     0.068097114642769
1 4
    -1.226597853905220    -0.253598246839818    -0.179321056022251
     0.253598255153635     0.468891717561396     0.254546361992297
     0.179321041492319     0.254546359198442     0.288900278872589
1 5
     0.045019323881148    -0.987766769410040     0.310104116729904
    -0.480570279094353    -0.802725461007382     0.028023387112731
     0.130783067312716    -0.282569803431665     0.288900273418313
1 6
    -0.031967131836058     0.009901364893270    -0.029545516962794
     0.009901365573776    -0.043400250318068    -0.017058115979819
     0.007756125383941     0.004477996960142     0.040208139073853
1 7
    -0.031967136046287    -0.009901368065043     0.029545521131156
    -0.009901366534725    -0.043400245908942    -0.017058113194919
    -0.007756123363192     0.004478000799511     0.040208139475617
1 8
     0.045019346911727     0.987766771680910    -0.310104117890441
     0.480570261310760    -0.802725457213605     0.028023393787577
    -0.130783082207714    -0.282569763073332     0.288900265031356
1 9
     0.027049649386647    -0.086744289572981     0.011064803878119
    -0.086744289421359    -0.073114023426682    -0.006388269585448
     0.011064802623156    -0.006388270329599     0.068097114830358
1 10
    -0.049116803685916    -0.000000003324877     0.000000001955331
    -0.000000002595145    -0.026250578949371     0.034116227220288
     0.000000002714416    -0.008955999902775     0.040208140497141
1 11
     0.027049651205117     0.086744283921738    -0.011064799615472
     0.086744283357584    -0.073114023747472    -0.006388265561576
    -0.011064798205022    -0.006388267683320     0.068097113444759
1 12
    -0.049116803021679    -0.000000001993232     0.000000000163587
    -0.000000001014970    -0.026250579041743    -0.008956000432130
     0.000000000950849     0.034116229114917     0.040208140712917
1 13
     0.045019313759241    -0.480570282705482     0.130783078839952
    -0.987766782942693    -0.802725445317773    -0.282569778568304
     0.310104107615764     0.028023373357231     0.288900267382131
1 14
     0.045019348745632     0.480570259963720    -0.130783083810291
     0.987766769296853    -0.802725455305808    -0.282569761047260
    -0.310104104679240     0.028023379807661     0.288900262192205
1 15
    -0.031967135671384    -0.009901364972365    -0.007756124342863
    -0.009901365088759    -0.043400246239311     0.004478001142459
     0.029545516146789    -0.017058112178220     0.040208140023573
1 16
    -0.031967132036840     0.009901362995455     0.007756127357015
     0.009901364800377    -0.043400247900046     0.004477999188023
    -0.029545516217636    -0.017058113416816     0.040208138874228
1 17
     0.045019348888772    -0.036886593824519    -1.034643477645734
    -0.036886605822583     0.087612330839385    -0.597351690430100
    -0.496680353318083    -0.286758522279335    -0.601437529846196
1 18
    -0.031967131619797    -0.024555327306992     0.019183603462136
     0.010613000005030     0.026964769134940    -0.020399792675794
     0.006749723170965    -0.041935903504067    -0.030156878526181
1 19
    -0.031967135893032     0.024555325597010    -0.019183600892499
    -0.010613000479499     0.026964772378369    -0.020399788769932
    -0.006749721725785    -0.041935899826921    -0.030156879191077
1 20
     0.045019323538856     0.036886595564037     1.034643502491591
     0.036886608012545     0.087612333462320    -0.597351691415660
     0.496680359172163    -0.286758526293621    -0.601437501358779
1 21
     0.006194589914917    -0.011419681789260    -0.008074935473219
    -0.046588007850622    -0.011196953887400     0.026813384170372
    -0.032942697226713     0.026813386724949    -0.030156878123367
1 22
    -0.022304569714202    -0.000000002711543     0.000000003225322
    -0.000000002596323    -0.022304570642107    -0.000000000333811
     0.000000002485553     0.000000000071650    -0.022304569467153
1 23
     0.006194591841699     0.011419681381543     0.008074935314322
     0.046588009712964    -0.011196957018651     0.026813381632815
     0.032942698844963     0.026813383291226    -0.030156876360762
1 24
    -0.017134476634132    -0.000000002973293     0.000000002210983
    -0.000000001358347    -0.050796987194283    -0.023802987307106
     0.000000001907402    -0.023802986355433    -0.033965732685293
1 25
     0.018268997713038    -0.039616846077780    -0.027258539471506
    -0.004448517845342    -0.023271361219370    -0.006413592150145
    -0.039692419111158     0.015122522020156    -0.030156879150089
1 26
     0.018268998502684     0.039616840836249     0.027258542292097
     0.004448516637658    -0.023271362111780    -0.006413591128107
     0.039692421187662     0.015122522737463    -0.030156876833946
1 27
     0.004989051794875     0.001049707061469    -0.018342496377814
     0.001049707844573     0.003776955794626    -0.010590044054426
    -0.024203322177879    -0.013973793010050    -0.011774157782483
1 28
     0.004989051914810    -0.001049709703569     0.018342501897141
    -0.001049708785426     0.003776955725634    -0.010590045158354
     0.024203325836339    -0.013973793762636    -0.011774157039642
1 29
     0.108908816636471    -0.000000007308707     0.000000014565582
    -0.000000011092621     0.023722814941249     1.194703404494365
     0.000000011189699     0.573517084188634    -0.601437477380324
1 30
    -0.042381359496247     0.014576293227966    -0.020613990674920
     0.014576293162026    -0.025550104903427     0.011901495402681
    -0.020613990730965     0.011901496102346    -0.033965731391503
1 31
     0.003170906809154    -0.000000000753905     0.000000001931350
     0.000000000203596     0.005595100755117     0.021180091468691
     0.000000002769596     0.027947591889039    -0.011774156257475
1 32
    -0.042381357648480    -0.014576296716875     0.020613995096510
    -0.014576296936949    -0.025550106586242     0.011901491929544
     0.020613994551628     0.011901493335872    -0.033965730697986
1 33
     0.027049652343775    -0.018482765940702    -0.085471561145903
    -0.018482767694084     0.048391711467402    -0.049347028975307
    -0.085471562332183    -0.049347025728851    -0.053408621103030
1 34
    -0.049116804661935    -0.000000000837654     0.000000001854727
     0.000000000570360     0.040730933977523    -0.032637540976212
     0.000000002938734     0.010434688084656    -0.026773372181599
1 35
     0.027049650378371     0.018482763955319     0.085471567884034
     0.018482764621286     0.048391710700390    -0.049347029520809
     0.085471568350218    -0.049347028574732    -0.053408622357051
1 36
    -0.049116802621098    -0.000000001316177     0.000000002557364
    -0.000000000997562     0.040730934817515     0.010434687456223
     0.000000003557977    -0.032637537831700    -0.026773373040630
1 37
     0.018268999355343    -0.038905213221258    -0.028264936757530
    -0.038905214126835    -0.026654870823806     0.016318770810418
     0.009036704054788    -0.005217341580811    -0.026773371040014
1 38
     0.018268999519169     0.038905206923444     0.028264943517579
     0.038905209676513    -0.026654870298449     0.016318770769310
    -0.009036699910810    -0.005217341248821    -0.026773370756916
1 39
     0.004989054207896    -0.016943570837076     0.007103841585934
    -0.022469210829501    -0.017765928609283    -0.006357239781485
     0.009057448994761    -0.002973489692537     0.009768724179032
1 40
     0.004989053040333     0.016943567679040    -0.007103837489754
     0.022469209634703    -0.017765927329009    -0.006357236334133
    -0.009057446653023    -0.002973485113633     0.009768723447975
1 41
     0.059062740913103     0.000000000372498    -0.000000001380058
    -0.000000000456499     0.016378619054056     0.098694063220878
     0.000000001211180     0.098694066030634    -0.053408616578842
1 42
    -0.029143416073545    -0.002762822157416    -0.001953605665478
     0.002762817916061     0.016366543181571     0.009330726424973
     0.001953611870052     0.009330728714803     0.009768723847645
1 43
     0.004614726799357    -0.000000002407826     0.000000003459736
    -0.000000002084859     0.004614727297687     0.000000001378436
     0.000000003571905     0.000000001443818     0.004614728010149
1 44
    -0.029143417631729     0.002762820437327     0.001953607973362
    -0.002762818090015     0.016366543351991     0.009330726595154
    -0.001953610819510     0.009330728089483     0.009768724044442
1 45
     0.018268998754084    -0.038905214001090     0.009036705745926
    -0.038905212097466    -0.026654867985858    -0.005217342084070
    -0.028264938931310     0.016318772726662    -0.026773372902104
1 46
     0.004989053486443     0.022469207750070    -0.009057445437433
     0.016943569996296    -0.017765926545357    -0.002973488064978
    -0.007103837155791    -0.006357235998586     0.009768724678239
1 47
     0.004989052032825    -0.022469212704812     0.009057452353577
    -0.016943571276215    -0.017765925764005    -0.002973487011400
     0.007103842094925    -0.006357235494732     0.009768723972377
1 48
     0.018268999444795     0.038905212117400    -0.009036702971096
     0.038905211392755    -0.026654869061387    -0.005217341658802
     0.028264940673142     0.016318773297677    -0.026773371349316
1 49
     0.045019323301600    -0.036886612675190    -0.496680358877009
    -0.036886606412152     0.087612328113625    -0.286758524804731
    -1.034643495771530    -0.597351683696401    -0.601437544430314
1 50
     0.045019323872278     0.036886605612716     0.496680360972095
     0.036886597097129     0.087612333253604    -0.286758528016830
     1.034643492575785    -0.597351691735238    -0.601437502623884
1 51
    -0.031967132824634    -0.010613001904684    -0.006749719468716
     0.024555326016766     0.026964770854801    -0.041935903635280
    -0.019183599795936    -0.020399787391401    -0.030156880831959
1 52
    -0.031967135355806     0.010612997434931     0.006749726129944
    -0.024555327561796     0.026964772520829    -0.041935901874276
     0.019183605507339    -0.020399787308975    -0.030156880408316
1 53
     0.108908816872337    -0.000000011161120     0.000000010431169
    -0.000000006165299     0.023722814985537     0.573517083640137
     0.000000014868537     1.194703406832602    -0.601437477104955
1 54
    -0.042381359903519    -0.014576296836133     0.020613995906959
    -0.014576296949414    -0.025550103573200     0.011901496152198
     0.020613995751473     0.011901498125048    -0.033965732326778
1 55
     0.003170904940964    -0.000000002672021     0.000000002226744
    -0.000000001557692     0.005595101534132     0.027947593596231
     0.000000002758027     0.021180096287543    -0.011774156459757
1 56
    -0.042381359298345     0.014576292827116    -0.020613991189801
     0.014576292743191    -0.025550104952617     0.011901495563907
    -0.020613990896792     0.011901496214707    -0.033965731031746
1 57
     0.018269001475570    -0.004448520099383    -0.039692415871273
    -0.039616846894390    -0.023271364841432     0.015122517564127
    -0.027258538371108    -0.006413593924979    -0.030156879163828
1 58
     0.004989052767751    -0.001049711586851     0.024203329235758
    -0.001049710591433     0.003776954124576    -0.013973795089720
     0.018342501629792    -0.010590044979710    -0.011774157908501
1 59
     0.004989054331051     0.001049706415553    -0.024203321153806
     0.001049707927998     0.003776954136450    -0.013973795619900
    -0.018342496388945    -0.010590044455223    -0.011774158650841
1 60
     0.018268999126288     0.004448518524609     0.039692417974733
     0.039616845099115    -0.023271363051205     0.015122521712793
     0.027258538294643    -0.006413590087621    -0.030156877377953
1 61
     0.006194591041240    -0.046588011473898    -0.032942692325769
    -0.011419684216172    -0.011196954381711     0.026813383079318
    -0.008074930961318     0.026813383858476    -0.030156878453714
1 62
    -0.017134476126954    -0.000000000438977    -0.000000001358515
     0.000000000268310    -0.050796988098994    -0.023802991459803
    -0.000000001474857    -0.023802989714307    -0.033965732665120
1 63
     0.006194590467771     0.046588006027218     0.032942701779030
     0.011419680936096    -0.011196954821144     0.026813381750942
     0.008074938699976     0.026813384572418    -0.030156877310089
1 64
    -0.022304569163421    -0.000000000198312    -0.000000000943894
     0.000000000136439    -0.022304569721643     0.000000001953681
    -0.000000001231204     0.000000002222819    -0.022304571063679
1 65
    -0.012159595586602     0.008621831928814     0.006096560398820
     0.008621832830742    -0.022115231019520     0.003519851167089
     0.006096559480806     0.003519852856807    -0.024604141535264
1 66
    -0.012159595465572    -0.008621835475226    -0.006096554846457
    -0.008621835027807    -0.022115232285057     0.003519850815350
    -0.006096556033525     0.003519851654894    -0.024604140929318
1 67
    -0.012512122880106    -0.059203769147320    -0.041863386421226
    -0.079972228958512     0.059090152029233     0.004219283632309
    -0.056548908899237     0.004219283995961     0.056106665910980
1 68
    -0.012512122160542     0.059203765597195     0.041863389129446
     0.079972230466941     0.059090148996435     0.004219283524357
     0.056548911529026     0.004219284453757     0.056106667594917
1 69
    -0.027093047660391    -0.000000000491741     0.000000000294413
     0.000000000623391    -0.007181778912474    -0.007039700607684
    -0.000000001095423    -0.007039698252640    -0.024604142061993
1 70
     0.008924472301995    -0.014192825998154     0.004645449715124
    -0.014192825440427     0.025312931872733     0.002682049301499
    -0.001719664237662    -0.000992848712754    -0.016884425667035
1 71
    -0.009451259586221    -0.000000001058228     0.000000001911536
     0.000000000060252     0.013146677746785     0.002655641061780
     0.000000001533307     0.001923574976130    -0.008974595515041
1 72
     0.008924471856544     0.014192822485977    -0.004645444802761
     0.014192822849929     0.025312931593910     0.002682052275735
     0.001719667904027    -0.000992846281543    -0.016884425525080
1 73
    -0.019075391305001    -0.076182924059921    -0.017277687375735
    -0.055414462700515     0.065653420912385    -0.038364397844149
    -0.024620450264867    -0.051082429743726     0.056106664888912
1 74
     0.007497194214536    -0.009785198367826     0.002299857616529
    -0.009785198027262    -0.003801777353812    -0.001327821932899
     0.001665867959438    -0.000961786922508    -0.008974595125868
1 75
     0.007497194028059     0.009785193252342    -0.002299852335294
     0.009785194043507    -0.003801776833724    -0.001327821101446
    -0.001665863768360    -0.000961785590013    -0.008974594734848
1 76
    -0.019075392938388     0.076182923628578     0.017277689431206
     0.055414461585155     0.065653421061003    -0.038364395322493
     0.024620449541076    -0.051082427668101     0.056106666299703
1 77
     0.101454556680192     0.014173533041826     0.024585701735782
    -0.006594927562585    -0.054876530858541     0.034145114915012
     0.031928460737815     0.046863148800971     0.056106669589763
1 78
     0.033507163880313    -0.000000002656356     0.000000003357650
    -0.000000001173610     0.000730239827384    -0.005364100272048
     0.000000002992979     0.001985701250362    -0.016884425918926
1 79
     0.101454558364106    -0.014173536600684    -0.024585698213670
     0.006594923819684    -0.054876530804584     0.034145114650650
    -0.031928457216907     0.046863146867081     0.056106667130242
1 80
    -2.210789591434065     0.000000024686427    -0.000000080757134
     0.000000025099867    -2.210789579318480     0.000000061422491
     0.000000005594423     0.000000073684780    -7.737350118858050
1 81
    -0.027093049722443    -0.000000001193309     0.000000001364505
    -0.000000000577860    -0.027093050615368     0.000000000943700
     0.000000001175364     0.000000002633451    -0.004692868645665
1 82
     0.008924471189097    -0.000351172326070    -0.014929603513530
    -0.006352258540385    -0.011664966790884     0.012080811565594
    -0.012807899859356     0.015755711808676     0.020093473103801
1 83
    -0.009451260235397    -0.000000002138945     0.000000001432842
    -0.000000000601800    -0.005077568152209     0.008366818546189
     0.000000001005836     0.009098887103818     0.009249651352733
1 84
     0.008924471738824     0.000351170991725     0.014929606383098
     0.006352258386983    -0.011664967524177     0.012080810375236
     0.012807902614054     0.015755710266384     0.020093474079849
1 85
    -0.009420274872623     0.004239084882300     0.002997489874587
     0.010240172876600     0.006679781041441    -0.018969824550198
     0.007240898162014    -0.018969823477687     0.020093471275412
1 86
     0.006197148651520    -0.003723760057448    -0.002633095507388
    -0.003723759569656     0.010496976432990    -0.001520216985039
    -0.002633095814949    -0.001520216772927     0.011571933075764
1 87
     0.006197150523739     0.003723756752342     0.002633098482558
     0.003723758132073     0.010496975221357    -0.001520218549393
     0.002633097392996    -0.001520218072672     0.011571933437713
1 88
    -0.009420276595963    -0.004239089467091    -0.002997483931623
    -0.010240174331505     0.006679781768957    -0.018969823819549
    -0.007240893742144    -0.018969822799220     0.020093472226251
1 89
    -0.006170989809532    -0.001893866730755     0.007245878253822
    -0.001893865746247    -0.008357838135785    -0.004183410287124
     0.007879866703042    -0.004549442481089     0.009249650962117
1 90
     0.012646890870189     0.000000000151294    -0.000000000376560
     0.000000000764136     0.004047233894387     0.003040436747780
    -0.000000000746205     0.003040438887177     0.011571933412416
1 91
    -0.006170988706503     0.001893862602969    -0.007245875253051
     0.001893863226835    -0.008357839514784    -0.004183410199075
    -0.007879864864075    -0.004549442401785     0.009249650624649
1 92
    -0.017161737502004    -0.000000003312348     0.000000002799870
    -0.000000002924810    -0.180403343429022     0.016842331864514
     0.000000001958072    -0.015076523730335     0.018547142400718
1 93
    -0.003614936235481     0.013591885436384     0.017927094634509
     0.007590800183545     0.000874440981299     0.006889013226950
     0.020048799173941     0.003214115282469     0.020093473063652
1 94
    -0.003614935723058    -0.013591889793781    -0.017927091412118
    -0.007590803268553     0.000874440155308     0.006889011791326
    -0.020048796377764     0.003214112909071     0.020093472861820
1 95
    -0.139592939657072     0.070685685432280     0.014585891019080
     0.070685685620113    -0.057972141236858    -0.008421167801651
    -0.013056648244713     0.007538260668833     0.018547142900578
1 96
    -0.139592939000647    -0.070685686603519    -0.014585890242352
    -0.070685687068459    -0.057972140220705    -0.008421170046173
     0.013056648716916     0.007538257857634     0.018547142894511
1 97
    -0.019075392063298    -0.041683868250079    -0.066066720836606
    -0.041683868467436     0.029056991949191    -0.038143640130745
    -0.044038440319573    -0.025425604891478     0.092703094765639
1 98
     0.007497193847557    -0.001093409363929    -0.009992187477582
    -0.001691139252498    -0.009119392698189     0.000918273994128
    -0.009780857611677     0.000552242025541    -0.003656978961375
1 99
     0.007497196589337     0.001093406852679     0.009992190828683
     0.001691138584152    -0.009119395463601     0.000918271472864
     0.009780860400561     0.000552238945640    -0.003656978715786
1 100
    -0.019075393104777     0.041683865909255     0.066066722714826
     0.041683866911343     0.029056991233064    -0.038143639392599
     0.044038443407109    -0.025425605276065     0.092703095582554
1 101
    -0.006170989836965     0.006200190477810    -0.004200847878434
     0.006797923233207     0.004548791020377    -0.009112626775687
    -0.004412177729745    -0.008746591468073    -0.003656979581560
1 102
     0.012646890291929    -0.000000000062330    -0.000000000063988
     0.000000000363806     0.012646890016165     0.000000000444355
    -0.000000000559309     0.000000001931199     0.002972278143007
1 103
    -0.006170990079859    -0.006200194569182     0.004200849427575
    -0.006797923803721     0.004548790746203    -0.009112626263101
     0.004412179261363    -0.008746591923770    -0.003656978938340
1 104
    -0.017161738091282    -0.000000001555516     0.000000005995549
    -0.000000001262126    -0.003003525113144    -0.077796829785428
     0.000000004390160    -0.045877969654494    -0.158852677466457
1 105
    -0.003759501628869     0.008190194841214     0.005791343077639
     0.007592465014957     0.002137302924721     0.008194354747143
     0.005368682965290     0.008194355783738    -0.003656978752294
1 106
    -0.003759501654540    -0.008190198520504    -0.005791339894578
    -0.007592466355057     0.002137302569810     0.008194352814942
    -0.005368681592028     0.008194354569329    -0.003656978747890
1 107
     0.006648321877691    -0.027553561302419    -0.019483306376122
    -0.027553560420570     0.038464430897999    -0.011248692432396
    -0.019483306307720    -0.011248691675954     0.046418457807511
1 108
     0.006648320451282     0.027553557727161     0.019483311454907
     0.027553558244349     0.038464430970552    -0.011248692112662
     0.019483310343991    -0.011248691302781     0.046418458050297
1 109
     0.053123184262579    -0.000000001039738     0.000000001920456
    -0.000000002293546    -0.043141587504817     0.076287277790729
     0.000000001479052     0.050851211264785     0.092703098120433
1 110
    -0.006543079497833    -0.006130686411369    -0.067374027647865
    -0.006130686212501    -0.013622185988405     0.038898416944100
    -0.039731487153417     0.022938990338636    -0.158852672756271
1 111
     0.054372486534456    -0.000000000765140     0.000000000485997
    -0.000000001612132    -0.009259735426122     0.022497385350345
     0.000000000581303     0.022497385542035     0.046418459998231
1 112
    -0.006543078097461     0.006130683005491     0.067374033074636
     0.006130685801697    -0.013622187568354     0.038898410790636
     0.039731492275230     0.022938986926116    -0.158852672068852
1 113
     0.101454557472755     0.027904128998674     0.005167711126263
     0.027904130268354     0.069233642200640     0.002983579790777
    -0.016860571414232    -0.009734452559209    -0.068003504547188
1 114
     0.033507163927771    -0.000000002907789     0.000000002215654
    -0.000000001273300    -0.015988970165005     0.007896833952338
     0.000000002274834     0.000547034322589    -0.000165216144072
1 115
     0.101454558899532    -0.027904133194460    -0.005167707112261
    -0.027904132469413     0.069233642037094     0.002983578257003
     0.016860576230398    -0.009734454111599    -0.068003504616843
1 116
    -2.210789580491222     0.000000114214359    -0.000000070231689
    -0.000000004342902    -7.123287882296156     1.736830322058685
    -0.000000029363904     1.736830264705924    -2.824851796272880
1 117
    -0.003614935958078     0.021432453870460     0.006838858684834
     0.021432454385487     0.021133130752059    -0.003948413258839
     0.000473745077954    -0.000273512965771    -0.000165215938771
1 118
    -0.003614934998377    -0.021432455068499    -0.006838855799100
    -0.021432454876315     0.021133129287335    -0.003948417807321
    -0.000473743500079    -0.000273515624631    -0.000165215738120
1 119
    -0.139592940572421     0.037313602529458     0.061781144630850
     0.011251966111677     0.009767529134091    -0.016411329105811
     0.070995326771011    -0.032370756068818    -0.049192527170396
1 120
    -0.139592939064203    -0.037313603428421    -0.061781140367433
    -0.011251966741487     0.009767530421871    -0.016411326947075
    -0.070995321116501    -0.032370753121274    -0.049192529215126
1 121
     0.053123185306731    -0.000000001199458     0.000000001730385
    -0.000000000239078     0.117565015439288    -0.005967154093000
     0.000000003144858     0.019468920455314    -0.068003504515686
1 122
    -0.006543077123636    -0.065564406281151     0.016677942888026
    -0.039502770112410    -0.123282335338961     0.061709699662390
     0.007463762647168     0.077669125619168    -0.049192522192851
1 123
     0.054372485682477    -0.000000002112409     0.000000003821982
    -0.000000001328428     0.054372485596949     0.000000000543562
     0.000000003074351     0.000000002686622    -0.017213760576259
1 124
    -0.006543078809785     0.065564408847513    -0.016677944793249
     0.039502769318736    -0.123282334829677     0.061709703808282
    -0.007463763668635     0.077669135152361    -0.049192525798964
1 125
    -5.895163303991115     2.127174151729173     1.504139271225535
     2.127174134168661    -3.438914134644043    -0.868415213430911
     1.504139269330174    -0.868415219757158    -2.824851871167630
1 126
    -0.048602099102688    -0.063785556463344    -0.045103197476242
    -0.089847193080609    -0.081223310959320    -0.045298373783357
    -0.063531559106098    -0.045298372276498    -0.049192527843022
1 127
    -0.048602098643877     0.063785553363784     0.045103201232317
     0.089847191907450    -0.081223313580966    -0.045298373801989
     0.063531561812516    -0.045298372948019    -0.049192526328450
1 128
    -5.895163307299166    -2.127174080196505    -1.504139356680067
    -2.127174017744174    -3.438914055949412    -0.868415208147386
    -1.504139412196681    -0.868415264160904    -2.824851938369407
2 1
    -1.226597826308684    -0.253598242415733    -0.179321063165377
     0.253598253333782     0.468891728290784     0.254546373255533
     0.179321036822271     0.254546362903129     0.288900285728553
2 2
    18.755971958313996    -0.000000234324565    -0.000000032328134
    -0.000000234324565    18.755972742361511     0.000001017033523
    -0.000000032328134     0.000001017033523    18.755972348808033
2 3
    -1.226597813864377     0.253598271044126     0.179321042229034
    -0.253598241698748     0.468891739952288     0.254546372405292
    -0.179321064814612     0.254546380700373     0.288900292179680
2 4
    -0.123195858453390     0.000000001825942    -0.000000000602893
    -0.000000000228832     0.077131486584910     0.012776533732889
     0.000000000266477     0.012776534465030     0.068097113668533
2 5
     0.045019341660645     0.987766764418377    -0.310104090249168
     0.480570268555050    -0.802725493847949     0.028023373670646
    -0.130783071629203    -0.282569780445560     0.288900256928697
2 6
     0.045019331212638    -0.987766768053371     0.310104086922859
    -0.480570267402225    -0.802725466209878     0.028023361270020
     0.130783066008259    -0.282569804381989     0.288900264009260
2 7
    -0.031967133778822     0.009901366754912    -0.029545518223977
     0.009901366562091    -0.043400248356293    -0.017058116716076
     0.007756124429564     0.004477997662966     0.040208138688239
2 8
    -0.031967132663451    -0.009901366023452     0.029545518783280
    -0.009901364695929    -0.043400249262749    -0.017058117463469
    -0.007756123713829     0.004477999024836     0.040208138970947
2 9
    -0.049116800936430     0.000000000364645    -0.000000000639689
    -0.000000000997336    -0.026250581003450    -0.008956006326625
     0.000000000136653     0.034116221939940     0.040208141240049
2 10
     0.027049650390827    -0.086744288667480     0.011064798732685
    -0.086744285919510    -0.073114024040805    -0.006388272310941
     0.011064801619801    -0.006388270185116     0.068097112857018
2 11
    -0.049116802292122     0.000000001569558    -0.000000000033159
    -0.000000000465013    -0.026250579300138     0.034116223750256
     0.000000000937240    -0.008956003512699     0.040208139395453
2 12
     0.027049653058976     0.086744286975269    -0.011064801382480
     0.086744285582201    -0.073114026676475    -0.006388271538731
    -0.011064802415573    -0.006388266726553     0.068097113430656
2 13
    -0.031967132810373     0.009901364897051     0.007756125377668
     0.009901364689675    -0.043400250128083     0.004477995638657
    -0.029545516517877    -0.017058116942654     0.040208138939651
2 14
     0.045019322989123    -0.480570274933625     0.130783064576729
    -0.987766760575282    -0.802725448124216    -0.282569801480526
     0.310104101477687     0.028023378754091     0.288900266386823
2 15
     0.045019325726255     0.480570282593405    -0.130783067489015
     0.987766765150426    -0.802725482761690    -0.282569785396576
    -0.310104115090979     0.028023403670028     0.288900261908311
2 16
    -0.031967131156438    -0.009901365591870    -0.007756124826208
    -0.009901364838182    -0.043400249118561     0.004477994911180
     0.029545518625009    -0.017058117301169     0.040208138111396
2 17
     0.045019320078796     0.036886628663937     1.034643491310318
     0.036886614548057     0.087612313304880    -0.597351699800423
     0.496680359201372    -0.286758555185869    -0.601437530461862
2 18
     0.045019348202069    -0.036886621151254    -1.034643478500491